phonopy:
  version: "2.21.2"
  calculator: cp2k
  frequency_unit_conversion_factor: 112.105157
  symmetry_tolerance: 1.00000e-05
  configuration:
    dim: "1 2 4"
    band: "0 0 0 -0.50238636  0.83653954  0.66992366"
    band_points: "51"
    write_force_constants: ".TRUE."
    cell_filename: "pbttt.inp"
    calculator: "cp2k"

physical_unit:
  atomic_mass: "AMU"
  length: "angstrom"
  force_constants: "hartree/angstrom.au"

space_group:
  type: "P1"
  number: 1
  Hall_symbol: "P 1"

supercell_matrix:
- [   1,   0,   0 ]
- [   0,   2,   0 ]
- [   0,   0,   4 ]

primitive_cell:
  lattice:
  - [     2.527238672900000,     1.901683826800000,   -18.737440315099999 ] # a
  - [     0.690798905000000,    -8.891505596000000,     0.000000000000000 ] # b
  - [    -5.540050000000000,     0.000000000000000,     0.000000000000000 ] # c
  points:
  - symbol: C  # 1
    coordinates: [  0.514139999999706,  0.392940000002042,  0.912880000002919 ]
    mass: 12.010700
  - symbol: C  # 2
    coordinates: [  0.443940000000774,  0.329780000002495,  0.855080000007546 ]
    mass: 12.010700
  - symbol: C  # 3
    coordinates: [  0.431270000000364,  0.219960000009961,  0.652080000002380 ]
    mass: 12.010700
  - symbol: C  # 4
    coordinates: [  0.493400000001583,  0.198700000002354,  0.548480000006857 ]
    mass: 12.010700
  - symbol: C  # 5
    coordinates: [  0.505540000000232,  0.101180000010981,  0.342120000002516 ]
    mass: 12.010700
  - symbol: C  # 6
    coordinates: [  0.570449999997396,  0.088760000010364,  0.255080000011585 ]
    mass: 12.010700
  - symbol: C  # 7
    coordinates: [  0.494640000002078,  0.913720000001708,  0.972600000008355 ]
    mass: 12.010700
  - symbol: C  # 8
    coordinates: [  0.564150000001939,  0.983340000002504,  0.048680000011889 ]
    mass: 12.010700
  - symbol: C  # 9
    coordinates: [  0.488340000001284,  0.808280000005294,  0.766200000011604 ]
    mass: 12.010700
  - symbol: C  # 10
    coordinates: [  0.553259999998280,  0.795859999997699,  0.679159999999281 ]
    mass: 12.010700
  - symbol: C  # 11
    coordinates: [  0.565420000001930,  0.698340000004756,  0.472840000010285 ]
    mass: 12.010700
  - symbol: C  # 12
    coordinates: [  0.627559999997643,  0.677060000001616,  0.369359999996315 ]
    mass: 12.010700
  - symbol: C  # 13
    coordinates: [  0.614920000002066,  0.567220000001874,  0.166360000007271 ]
    mass: 12.010700
  - symbol: C  # 14
    coordinates: [  0.544719999997797,  0.504079999999846,  0.108480000005201 ]
    mass: 12.010700
  - symbol: C  # 15
    coordinates: [  0.700960000001468,  0.752800000007616,  0.465120000008837 ]
    mass: 12.010700
  - symbol: C  # 16
    coordinates: [  0.739100000000512,  0.666160000006466,  0.666440000000172 ]
    mass: 12.010700
  - symbol: C  # 17
    coordinates: [  0.803420000002261,  0.756779999998996,  0.824600000002209 ]
    mass: 12.010700
  - symbol: C  # 18
    coordinates: [  0.840340000000473,  0.662840000006902,  0.015079999996561 ]
    mass: 12.010700
  - symbol: C  # 19
    coordinates: [  0.898449999999915,  0.754100000005027,  0.200680000005553 ]
    mass: 12.010700
  - symbol: C  # 20
    coordinates: [  0.934510000001916,  0.657800000004241,  0.389040000005154 ]
    mass: 12.010700
  - symbol: C  # 21
    coordinates: [  0.992360000000393,  0.748439999999298,  0.576639999999594 ]
    mass: 12.010700
  - symbol: C  # 22
    coordinates: [  0.028830000000836,  0.652260000009141,  0.764280000004230 ]
    mass: 12.010700
  - symbol: C  # 23
    coordinates: [  0.087019999998933,  0.743360000007147,  0.950200000007003 ]
    mass: 12.010700
  - symbol: C  # 24
    coordinates: [  0.123949999996977,  0.647620000005015,  0.137400000010447 ]
    mass: 12.010700
  - symbol: C  # 25
    coordinates: [  0.182369999996542,  0.738660000005126,  0.322720000007017 ]
    mass: 12.010700
  - symbol: C  # 26
    coordinates: [  0.219029999999127,  0.642180000004843,  0.509320000007099 ]
    mass: 12.010700
  - symbol: C  # 27
    coordinates: [  0.276889999997436,  0.732060000010124,  0.698280000006154 ]
    mass: 12.010700
  - symbol: C  # 28
    coordinates: [  0.312739999997632,  0.632120000005107,  0.881079999997994 ]
    mass: 12.010700
  - symbol: C  # 29
    coordinates: [  0.357870000001877,  0.144220000005102,  0.556400000010485 ]
    mass: 12.010700
  - symbol: C  # 30
    coordinates: [  0.319709999997832,  0.230840000009162,  0.355080000007926 ]
    mass: 12.010700
  - symbol: C  # 31
    coordinates: [  0.255380000001588,  0.140220000013505,  0.196920000010405 ]
    mass: 12.010700
  - symbol: C  # 32
    coordinates: [  0.218459999998039,  0.234160000004458,  0.006480000013476 ]
    mass: 12.010700
  - symbol: C  # 33
    coordinates: [  0.160339999998765,  0.142900000013312,  0.820920000007827 ]
    mass: 12.010700
  - symbol: C  # 34
    coordinates: [  0.124259999997101,  0.239200000005562,  0.632560000012106 ]
    mass: 12.010700
  - symbol: C  # 35
    coordinates: [  0.066419999998455,  0.148560000014774,  0.444920000015725 ]
    mass: 12.010700
  - symbol: C  # 36
    coordinates: [  0.029949999998012,  0.244740000004930,  0.257280000011090 ]
    mass: 12.010700
  - symbol: C  # 37
    coordinates: [  0.971779999999580,  0.153620000005554,  0.071320000007154 ]
    mass: 12.010700
  - symbol: C  # 38
    coordinates: [  0.934850000001535,  0.249360000007686,  0.884080000003710 ]
    mass: 12.010700
  - symbol: C  # 39
    coordinates: [  0.876430000001970,  0.158340000006234,  0.698760000003020 ]
    mass: 12.010700
  - symbol: C  # 40
    coordinates: [  0.839779999999217,  0.254819999999538,  0.512119999999596 ]
    mass: 12.010700
  - symbol: C  # 41
    coordinates: [  0.781910000001076,  0.164920000002577,  0.323200000008003 ]
    mass: 12.010700
  - symbol: C  # 42
    coordinates: [  0.746100000000208,  0.264820000004853,  0.140240000013839 ]
    mass: 12.010700
  - symbol: H  # 43
    coordinates: [  0.402229999997723,  0.361260000004327,  0.959720000003267 ]
    mass: 1.007940
  - symbol: H  # 44
    coordinates: [  0.619609999997913,  0.154760000009292,  0.338520000009840 ]
    mass: 1.007940
  - symbol: H  # 45
    coordinates: [  0.439190000000599,  0.742279999999387,  0.682720000010008 ]
    mass: 1.007940
  - symbol: H  # 46
    coordinates: [  0.656649999999444,  0.535720000008777,  0.061800000009214 ]
    mass: 1.007940
  - symbol: H  # 47
    coordinates: [  0.732440000000435,  0.760620000008176,  0.313000000001214 ]
    mass: 1.007940
  - symbol: H  # 48
    coordinates: [  0.697999999997876,  0.870260000003082,  0.536080000008350 ]
    mass: 1.007940
  - symbol: H  # 49
    coordinates: [  0.700060000000592,  0.630199999999048,  0.785319999996789 ]
    mass: 1.007940
  - symbol: H  # 50
    coordinates: [  0.754950000000814,  0.561060000005899,  0.581200000009257 ]
    mass: 1.007940
  - symbol: H  # 51
    coordinates: [  0.785269999997941,  0.856900000006177,  0.917720000011145 ]
    mass: 1.007940
  - symbol: H  # 52
    coordinates: [  0.842019999998906,  0.800939999997730,  0.709680000003903 ]
    mass: 1.007940
  - symbol: H  # 53
    coordinates: [  0.800129999998881,  0.607380000004147,  0.113800000011988 ]
    mass: 1.007940
  - symbol: H  # 54
    coordinates: [  0.863390000002445,  0.569780000004119,  0.920519999999108 ]
    mass: 1.007940
  - symbol: H  # 55
    coordinates: [  0.938970000001631,  0.810179999998450,  0.104200000008820 ]
    mass: 1.007940
  - symbol: H  # 56
    coordinates: [  0.874979999999669,  0.846279999998870,  0.296040000006466 ]
    mass: 1.007940
  - symbol: H  # 57
    coordinates: [  0.893860000002386,  0.601040000000916,  0.484440000004740 ]
    mass: 1.007940
  - symbol: H  # 58
    coordinates: [  0.958060000000816,  0.566080000002461,  0.293000000000855 ]
    mass: 1.007940
  - symbol: H  # 59
    coordinates: [  0.032819999997781,  0.805280000005002,  0.480680000010979 ]
    mass: 1.007940
  - symbol: H  # 60
    coordinates: [  0.968830000001156,  0.840139999999708,  0.672920000002731 ]
    mass: 1.007940
  - symbol: H  # 61
    coordinates: [  0.988560000000253,  0.595620000003640,  0.861239999996621 ]
    mass: 1.007940
  - symbol: H  # 62
    coordinates: [  0.052229999996922,  0.560540000009680,  0.667640000016819 ]
    mass: 1.007940
  - symbol: H  # 63
    coordinates: [  0.127119999997037,  0.800060000002409,  0.852680000004968 ]
    mass: 1.007940
  - symbol: H  # 64
    coordinates: [  0.063649999997005,  0.835160000001661,  0.046840000004235 ]
    mass: 1.007940
  - symbol: H  # 65
    coordinates: [  0.083919999997695,  0.590980000001866,  0.235360000000385 ]
    mass: 1.007940
  - symbol: H  # 66
    coordinates: [  0.147180000001259,  0.555860000004303,  0.040240000003046 ]
    mass: 1.007940
  - symbol: H  # 67
    coordinates: [  0.222529999998975,  0.795120000009485,  0.225160000005054 ]
    mass: 1.007940
  - symbol: H  # 68
    coordinates: [  0.159139999997598,  0.830560000008842,  0.419640000007607 ]
    mass: 1.007940
  - symbol: H  # 69
    coordinates: [  0.178749999998712,  0.584420000002669,  0.605000000007141 ]
    mass: 1.007940
  - symbol: H  # 70
    coordinates: [  0.242789999999833,  0.551200000010488,  0.412200000006537 ]
    mass: 1.007940
  - symbol: H  # 71
    coordinates: [  0.317099999999028,  0.790300000006482,  0.602880000000020 ]
    mass: 1.007940
  - symbol: H  # 72
    coordinates: [  0.253269999999713,  0.822720000008094,  0.796440000002139 ]
    mass: 1.007940
  - symbol: H  # 73
    coordinates: [  0.352679999998427,  0.696920000007705,  0.021040000005834 ]
    mass: 1.007940
  - symbol: H  # 74
    coordinates: [  0.273319999998765,  0.572240000009401,  0.976960000014008 ]
    mass: 1.007940
  - symbol: H  # 75
    coordinates: [  0.340120000001504,  0.546160000007053,  0.787600000016285 ]
    mass: 1.007940
  - symbol: H  # 76
    coordinates: [  0.360830000000132,  0.026760000008495,  0.485440000008395 ]
    mass: 1.007940
  - symbol: H  # 77
    coordinates: [  0.326409999997236,  0.136400000011936,  0.708600000011651 ]
    mass: 1.007940
  - symbol: H  # 78
    coordinates: [  0.303849999997698,  0.335920000006802,  0.440360000004900 ]
    mass: 1.007940
  - symbol: H  # 79
    coordinates: [  0.358739999997920,  0.266820000010972,  0.236200000009128 ]
    mass: 1.007940
  - symbol: H  # 80
    coordinates: [  0.273540000000403,  0.040100000009451,  0.103840000015002 ]
    mass: 1.007940
  - symbol: H  # 81
    coordinates: [  0.216789999999438,  0.096060000006652,  0.311880000002791 ]
    mass: 1.007940
  - symbol: H  # 82
    coordinates: [  0.195420000001236,  0.327220000012651,  0.101040000011567 ]
    mass: 1.007940
  - symbol: H  # 83
    coordinates: [  0.258669999999631,  0.289600000008554,  0.907720000002169 ]
    mass: 1.007940
  - symbol: H  # 84
    coordinates: [  0.183799999999179,  0.050700000005295,  0.725520000011571 ]
    mass: 1.007940
  - symbol: H  # 85
    coordinates: [  0.119829999996881,  0.086820000012910,  0.917440000019268 ]
    mass: 1.007940
  - symbol: H  # 86
    coordinates: [  0.100709999998200,  0.330920000007342,  0.728640000016405 ]
    mass: 1.007940
  - symbol: H  # 87
    coordinates: [  0.164909999996630,  0.295980000007547,  0.537160000008400 ]
    mass: 1.007940
  - symbol: H  # 88
    coordinates: [  0.089959999997524,  0.056860000007385,  0.348640000009246 ]
    mass: 1.007940
  - symbol: H  # 89
    coordinates: [  0.025960000001067,  0.091720000009069,  0.540880000022391 ]
    mass: 1.007940
  - symbol: H  # 90
    coordinates: [  0.006549999996589,  0.336460000003250,  0.353920000013975 ]
    mass: 1.007940
  - symbol: H  # 91
    coordinates: [  0.070229999998427,  0.301380000003452,  0.160360000015356 ]
    mass: 1.007940
  - symbol: H  # 92
    coordinates: [  0.995160000001339,  0.061840000002721,  0.974680000002460 ]
    mass: 1.007940
  - symbol: H  # 93
    coordinates: [  0.931670000001643,  0.096940000004683,  0.168760000007009 ]
    mass: 1.007940
  - symbol: H  # 94
    coordinates: [  0.911630000002422,  0.341140000001220,  0.981240000006226 ]
    mass: 1.007940
  - symbol: H  # 95
    coordinates: [  0.974880000000817,  0.305999999999588,  0.786120000012370 ]
    mass: 1.007940
  - symbol: H  # 96
    coordinates: [  0.899650000001083,  0.066400000000931,  0.601880000012611 ]
    mass: 1.007940
  - symbol: H  # 97
    coordinates: [  0.836259999999705,  0.101920000006173,  0.796320000000085 ]
    mass: 1.007940
  - symbol: H  # 98
    coordinates: [  0.816029999998343,  0.345820000008068,  0.609200000013551 ]
    mass: 1.007940
  - symbol: H  # 99
    coordinates: [  0.880069999999463,  0.312500000000096,  0.416400000012692 ]
    mass: 1.007940
  - symbol: H  # 100
    coordinates: [  0.805519999998967,  0.074180000005701,  0.225160000012389 ]
    mass: 1.007940
  - symbol: H  # 101
    coordinates: [  0.741689999999652,  0.106780000006495,  0.418640000014929 ]
    mass: 1.007940
  - symbol: H  # 102
    coordinates: [  0.706159999999412,  0.200020000002255,  0.000320000005999 ]
    mass: 1.007940
  - symbol: H  # 103
    coordinates: [  0.718740000001336,  0.350860000007222,  0.233600000013864 ]
    mass: 1.007940
  - symbol: H  # 104
    coordinates: [  0.785549999998569,  0.324620000007479,  0.044320000007084 ]
    mass: 1.007940
  - symbol: S  # 105
    coordinates: [  0.566219999999150,  0.315760000001813,  0.709120000002047 ]
    mass: 32.065000
  - symbol: S  # 106
    coordinates: [  0.436429999998981,  0.979660000005739,  0.161319999997732 ]
    mass: 32.065000
  - symbol: S  # 107
    coordinates: [  0.622359999999699,  0.917379999998672,  0.860000000006005 ]
    mass: 32.065000
  - symbol: S  # 108
    coordinates: [  0.492609999998857,  0.581300000007082,  0.312120000006457 ]
    mass: 32.065000
  reciprocal_lattice: # without 2pi
  - [    -0.000000000000000,    -0.000000000000000,    -0.053369082605916 ] # a*
  - [    -0.000000000000000,    -0.112466892046929,    -0.011414390976539 ] # b*
  - [    -0.180503786066913,    -0.014023701207529,    -0.025768983725183 ] # c*

unit_cell:
  lattice:
  - [     2.527238672900000,     1.901683826800000,   -18.737440315099999 ] # a
  - [     0.690798905000000,    -8.891505596000000,     0.000000000000000 ] # b
  - [    -5.540050000000000,     0.000000000000000,     0.000000000000000 ] # c
  points:
  - symbol: C  # 1
    coordinates: [ -0.485860000000294, -0.607059999997958, -0.087119999997081 ]
    mass: 12.010700
    reduced_to: 1
  - symbol: C  # 2
    coordinates: [ -0.556059999999226, -0.670219999997505, -0.144919999992454 ]
    mass: 12.010700
    reduced_to: 2
  - symbol: C  # 3
    coordinates: [ -0.568729999999636, -0.780039999990039, -0.347919999997620 ]
    mass: 12.010700
    reduced_to: 3
  - symbol: C  # 4
    coordinates: [ -0.506599999998417, -0.801299999997646, -0.451519999993143 ]
    mass: 12.010700
    reduced_to: 4
  - symbol: C  # 5
    coordinates: [ -0.494459999999768, -0.898819999989019, -0.657879999997484 ]
    mass: 12.010700
    reduced_to: 5
  - symbol: C  # 6
    coordinates: [ -0.429550000002604, -0.911239999989636, -0.744919999988415 ]
    mass: 12.010700
    reduced_to: 6
  - symbol: C  # 7
    coordinates: [ -0.505359999997922, -0.086279999998292, -0.027399999991645 ]
    mass: 12.010700
    reduced_to: 7
  - symbol: C  # 8
    coordinates: [ -0.435849999998061, -0.016659999997496, -0.951319999988111 ]
    mass: 12.010700
    reduced_to: 8
  - symbol: C  # 9
    coordinates: [ -0.511659999998716, -0.191719999994706, -0.233799999988396 ]
    mass: 12.010700
    reduced_to: 9
  - symbol: C  # 10
    coordinates: [ -0.446740000001720, -0.204140000002301, -0.320840000000719 ]
    mass: 12.010700
    reduced_to: 10
  - symbol: C  # 11
    coordinates: [ -0.434579999998070, -0.301659999995244, -0.527159999989715 ]
    mass: 12.010700
    reduced_to: 11
  - symbol: C  # 12
    coordinates: [ -0.372440000002357, -0.322939999998384, -0.630640000003685 ]
    mass: 12.010700
    reduced_to: 12
  - symbol: C  # 13
    coordinates: [ -0.385079999997934, -0.432779999998126, -0.833639999992729 ]
    mass: 12.010700
    reduced_to: 13
  - symbol: C  # 14
    coordinates: [ -0.455280000002203, -0.495920000000154, -0.891519999994799 ]
    mass: 12.010700
    reduced_to: 14
  - symbol: C  # 15
    coordinates: [ -0.299039999998532, -0.247199999992384, -0.534879999991163 ]
    mass: 12.010700
    reduced_to: 15
  - symbol: C  # 16
    coordinates: [ -0.260899999999488, -0.333839999993534, -0.333559999999828 ]
    mass: 12.010700
    reduced_to: 16
  - symbol: C  # 17
    coordinates: [ -0.196579999997739, -0.243220000001004, -0.175399999997791 ]
    mass: 12.010700
    reduced_to: 17
  - symbol: C  # 18
    coordinates: [ -0.159659999999527, -0.337159999993098, -0.984920000003439 ]
    mass: 12.010700
    reduced_to: 18
  - symbol: C  # 19
    coordinates: [ -0.101550000000085, -0.245899999994973, -0.799319999994447 ]
    mass: 12.010700
    reduced_to: 19
  - symbol: C  # 20
    coordinates: [ -0.065489999998084, -0.342199999995759, -0.610959999994847 ]
    mass: 12.010700
    reduced_to: 20
  - symbol: C  # 21
    coordinates: [ -0.007639999999607, -0.251560000000702, -0.423360000000406 ]
    mass: 12.010700
    reduced_to: 21
  - symbol: C  # 22
    coordinates: [ -0.971169999999164, -0.347739999990859, -0.235719999995770 ]
    mass: 12.010700
    reduced_to: 22
  - symbol: C  # 23
    coordinates: [ -0.912980000001067, -0.256639999992853, -0.049799999992997 ]
    mass: 12.010700
    reduced_to: 23
  - symbol: C  # 24
    coordinates: [ -0.876050000003023, -0.352379999994985, -0.862599999989553 ]
    mass: 12.010700
    reduced_to: 24
  - symbol: C  # 25
    coordinates: [ -0.817630000003458, -0.261339999994874, -0.677279999992983 ]
    mass: 12.010700
    reduced_to: 25
  - symbol: C  # 26
    coordinates: [ -0.780970000000873, -0.357819999995157, -0.490679999992901 ]
    mass: 12.010700
    reduced_to: 26
  - symbol: C  # 27
    coordinates: [ -0.723110000002564, -0.267939999989876, -0.301719999993846 ]
    mass: 12.010700
    reduced_to: 27
  - symbol: C  # 28
    coordinates: [ -0.687260000002368, -0.367879999994893, -0.118920000002006 ]
    mass: 12.010700
    reduced_to: 28
  - symbol: C  # 29
    coordinates: [ -0.642129999998123, -0.855779999994898, -0.443599999989514 ]
    mass: 12.010700
    reduced_to: 29
  - symbol: C  # 30
    coordinates: [ -0.680290000002168, -0.769159999990838, -0.644919999992074 ]
    mass: 12.010700
    reduced_to: 30
  - symbol: C  # 31
    coordinates: [ -0.744619999998412, -0.859779999986494, -0.803079999989595 ]
    mass: 12.010700
    reduced_to: 31
  - symbol: C  # 32
    coordinates: [ -0.781540000001961, -0.765839999995542, -0.993519999986524 ]
    mass: 12.010700
    reduced_to: 32
  - symbol: C  # 33
    coordinates: [ -0.839660000001235, -0.857099999986688, -0.179079999992173 ]
    mass: 12.010700
    reduced_to: 33
  - symbol: C  # 34
    coordinates: [ -0.875740000002899, -0.760799999994438, -0.367439999987894 ]
    mass: 12.010700
    reduced_to: 34
  - symbol: C  # 35
    coordinates: [ -0.933580000001545, -0.851439999985226, -0.555079999984274 ]
    mass: 12.010700
    reduced_to: 35
  - symbol: C  # 36
    coordinates: [ -0.970050000001988, -0.755259999995069, -0.742719999988910 ]
    mass: 12.010700
    reduced_to: 36
  - symbol: C  # 37
    coordinates: [ -0.028220000000420, -0.846379999994446, -0.928679999992845 ]
    mass: 12.010700
    reduced_to: 37
  - symbol: C  # 38
    coordinates: [ -0.065149999998465, -0.750639999992314, -0.115919999996290 ]
    mass: 12.010700
    reduced_to: 38
  - symbol: C  # 39
    coordinates: [ -0.123569999998030, -0.841659999993766, -0.301239999996980 ]
    mass: 12.010700
    reduced_to: 39
  - symbol: C  # 40
    coordinates: [ -0.160220000000783, -0.745180000000462, -0.487880000000404 ]
    mass: 12.010700
    reduced_to: 40
  - symbol: C  # 41
    coordinates: [ -0.218089999998924, -0.835079999997423, -0.676799999991997 ]
    mass: 12.010700
    reduced_to: 41
  - symbol: C  # 42
    coordinates: [ -0.253899999999792, -0.735179999995147, -0.859759999986161 ]
    mass: 12.010700
    reduced_to: 42
  - symbol: H  # 43
    coordinates: [ -0.597770000002277, -0.638739999995673, -0.040279999996733 ]
    mass: 1.007940
    reduced_to: 43
  - symbol: H  # 44
    coordinates: [ -0.380390000002087, -0.845239999990708, -0.661479999990160 ]
    mass: 1.007940
    reduced_to: 44
  - symbol: H  # 45
    coordinates: [ -0.560809999999401, -0.257720000000613, -0.317279999989992 ]
    mass: 1.007940
    reduced_to: 45
  - symbol: H  # 46
    coordinates: [ -0.343350000000556, -0.464279999991223, -0.938199999990786 ]
    mass: 1.007940
    reduced_to: 46
  - symbol: H  # 47
    coordinates: [ -0.267559999999565, -0.239379999991824, -0.686999999998786 ]
    mass: 1.007940
    reduced_to: 47
  - symbol: H  # 48
    coordinates: [ -0.302000000002124, -0.129739999996918, -0.463919999991650 ]
    mass: 1.007940
    reduced_to: 48
  - symbol: H  # 49
    coordinates: [ -0.299939999999408, -0.369800000000952, -0.214680000003211 ]
    mass: 1.007940
    reduced_to: 49
  - symbol: H  # 50
    coordinates: [ -0.245049999999186, -0.438939999994101, -0.418799999990742 ]
    mass: 1.007940
    reduced_to: 50
  - symbol: H  # 51
    coordinates: [ -0.214730000002059, -0.143099999993823, -0.082279999988854 ]
    mass: 1.007940
    reduced_to: 51
  - symbol: H  # 52
    coordinates: [ -0.157980000001094, -0.199060000002270, -0.290319999996097 ]
    mass: 1.007940
    reduced_to: 52
  - symbol: H  # 53
    coordinates: [ -0.199870000001119, -0.392619999995853, -0.886199999988012 ]
    mass: 1.007940
    reduced_to: 53
  - symbol: H  # 54
    coordinates: [ -0.136609999997555, -0.430219999995881, -0.079480000000893 ]
    mass: 1.007940
    reduced_to: 54
  - symbol: H  # 55
    coordinates: [ -0.061029999998369, -0.189820000001550, -0.895799999991180 ]
    mass: 1.007940
    reduced_to: 55
  - symbol: H  # 56
    coordinates: [ -0.125020000000331, -0.153720000001130, -0.703959999993533 ]
    mass: 1.007940
    reduced_to: 56
  - symbol: H  # 57
    coordinates: [ -0.106139999997614, -0.398959999999084, -0.515559999995260 ]
    mass: 1.007940
    reduced_to: 57
  - symbol: H  # 58
    coordinates: [ -0.041939999999184, -0.433919999997539, -0.706999999999145 ]
    mass: 1.007940
    reduced_to: 58
  - symbol: H  # 59
    coordinates: [ -0.967180000002219, -0.194719999994998, -0.519319999989021 ]
    mass: 1.007940
    reduced_to: 59
  - symbol: H  # 60
    coordinates: [ -0.031169999998844, -0.159860000000292, -0.327079999997269 ]
    mass: 1.007940
    reduced_to: 60
  - symbol: H  # 61
    coordinates: [ -0.011439999999747, -0.404379999996359, -0.138760000003379 ]
    mass: 1.007940
    reduced_to: 61
  - symbol: H  # 62
    coordinates: [ -0.947770000003078, -0.439459999990320, -0.332359999983182 ]
    mass: 1.007940
    reduced_to: 62
  - symbol: H  # 63
    coordinates: [ -0.872880000002963, -0.199939999997591, -0.147319999995032 ]
    mass: 1.007940
    reduced_to: 63
  - symbol: H  # 64
    coordinates: [ -0.936350000002995, -0.164839999998339, -0.953159999995765 ]
    mass: 1.007940
    reduced_to: 64
  - symbol: H  # 65
    coordinates: [ -0.916080000002305, -0.409019999998134, -0.764639999999615 ]
    mass: 1.007940
    reduced_to: 65
  - symbol: H  # 66
    coordinates: [ -0.852819999998741, -0.444139999995697, -0.959759999996954 ]
    mass: 1.007940
    reduced_to: 66
  - symbol: H  # 67
    coordinates: [ -0.777470000001025, -0.204879999990515, -0.774839999994946 ]
    mass: 1.007940
    reduced_to: 67
  - symbol: H  # 68
    coordinates: [ -0.840860000002402, -0.169439999991157, -0.580359999992393 ]
    mass: 1.007940
    reduced_to: 68
  - symbol: H  # 69
    coordinates: [ -0.821250000001288, -0.415579999997331, -0.394999999992858 ]
    mass: 1.007940
    reduced_to: 69
  - symbol: H  # 70
    coordinates: [ -0.757210000000167, -0.448799999989512, -0.587799999993463 ]
    mass: 1.007940
    reduced_to: 70
  - symbol: H  # 71
    coordinates: [ -0.682900000000972, -0.209699999993518, -0.397119999999980 ]
    mass: 1.007940
    reduced_to: 71
  - symbol: H  # 72
    coordinates: [ -0.746730000000287, -0.177279999991906, -0.203559999997861 ]
    mass: 1.007940
    reduced_to: 72
  - symbol: H  # 73
    coordinates: [ -0.647320000001573, -0.303079999992295, -0.978959999994166 ]
    mass: 1.007940
    reduced_to: 73
  - symbol: H  # 74
    coordinates: [ -0.726680000001235, -0.427759999990599, -0.023039999985993 ]
    mass: 1.007940
    reduced_to: 74
  - symbol: H  # 75
    coordinates: [ -0.659879999998496, -0.453839999992946, -0.212399999983715 ]
    mass: 1.007940
    reduced_to: 75
  - symbol: H  # 76
    coordinates: [ -0.639169999999868, -0.973239999991505, -0.514559999991605 ]
    mass: 1.007940
    reduced_to: 76
  - symbol: H  # 77
    coordinates: [ -0.673590000002764, -0.863599999988064, -0.291399999988349 ]
    mass: 1.007940
    reduced_to: 77
  - symbol: H  # 78
    coordinates: [ -0.696150000002302, -0.664079999993198, -0.559639999995100 ]
    mass: 1.007940
    reduced_to: 78
  - symbol: H  # 79
    coordinates: [ -0.641260000002080, -0.733179999989028, -0.763799999990872 ]
    mass: 1.007940
    reduced_to: 79
  - symbol: H  # 80
    coordinates: [ -0.726459999999597, -0.959899999990549, -0.896159999984998 ]
    mass: 1.007940
    reduced_to: 80
  - symbol: H  # 81
    coordinates: [ -0.783210000000562, -0.903939999993348, -0.688119999997208 ]
    mass: 1.007940
    reduced_to: 81
  - symbol: H  # 82
    coordinates: [ -0.804579999998764, -0.672779999987349, -0.898959999988433 ]
    mass: 1.007940
    reduced_to: 82
  - symbol: H  # 83
    coordinates: [ -0.741330000000369, -0.710399999991446, -0.092279999997831 ]
    mass: 1.007940
    reduced_to: 83
  - symbol: H  # 84
    coordinates: [ -0.816200000000821, -0.949299999994705, -0.274479999988429 ]
    mass: 1.007940
    reduced_to: 84
  - symbol: H  # 85
    coordinates: [ -0.880170000003119, -0.913179999987090, -0.082559999980732 ]
    mass: 1.007940
    reduced_to: 85
  - symbol: H  # 86
    coordinates: [ -0.899290000001800, -0.669079999992658, -0.271359999983595 ]
    mass: 1.007940
    reduced_to: 86
  - symbol: H  # 87
    coordinates: [ -0.835090000003370, -0.704019999992453, -0.462839999991600 ]
    mass: 1.007940
    reduced_to: 87
  - symbol: H  # 88
    coordinates: [ -0.910040000002476, -0.943139999992615, -0.651359999990753 ]
    mass: 1.007940
    reduced_to: 88
  - symbol: H  # 89
    coordinates: [ -0.974039999998933, -0.908279999990931, -0.459119999977609 ]
    mass: 1.007940
    reduced_to: 89
  - symbol: H  # 90
    coordinates: [ -0.993450000003411, -0.663539999996750, -0.646079999986025 ]
    mass: 1.007940
    reduced_to: 90
  - symbol: H  # 91
    coordinates: [ -0.929770000001573, -0.698619999996548, -0.839639999984643 ]
    mass: 1.007940
    reduced_to: 91
  - symbol: H  # 92
    coordinates: [ -0.004839999998661, -0.938159999997279, -0.025319999997540 ]
    mass: 1.007940
    reduced_to: 92
  - symbol: H  # 93
    coordinates: [ -0.068329999998357, -0.903059999995317, -0.831239999992991 ]
    mass: 1.007940
    reduced_to: 93
  - symbol: H  # 94
    coordinates: [ -0.088369999997578, -0.658859999998780, -0.018759999993774 ]
    mass: 1.007940
    reduced_to: 94
  - symbol: H  # 95
    coordinates: [ -0.025119999999183, -0.694000000000412, -0.213879999987630 ]
    mass: 1.007940
    reduced_to: 95
  - symbol: H  # 96
    coordinates: [ -0.100349999998917, -0.933599999999069, -0.398119999987389 ]
    mass: 1.007940
    reduced_to: 96
  - symbol: H  # 97
    coordinates: [ -0.163740000000295, -0.898079999993827, -0.203679999999915 ]
    mass: 1.007940
    reduced_to: 97
  - symbol: H  # 98
    coordinates: [ -0.183970000001657, -0.654179999991932, -0.390799999986449 ]
    mass: 1.007940
    reduced_to: 98
  - symbol: H  # 99
    coordinates: [ -0.119930000000537, -0.687499999999904, -0.583599999987308 ]
    mass: 1.007940
    reduced_to: 99
  - symbol: H  # 100
    coordinates: [ -0.194480000001033, -0.925819999994299, -0.774839999987611 ]
    mass: 1.007940
    reduced_to: 100
  - symbol: H  # 101
    coordinates: [ -0.258310000000348, -0.893219999993505, -0.581359999985071 ]
    mass: 1.007940
    reduced_to: 101
  - symbol: H  # 102
    coordinates: [ -0.293840000000588, -0.799979999997745, -0.999679999994001 ]
    mass: 1.007940
    reduced_to: 102
  - symbol: H  # 103
    coordinates: [ -0.281259999998664, -0.649139999992778, -0.766399999986136 ]
    mass: 1.007940
    reduced_to: 103
  - symbol: H  # 104
    coordinates: [ -0.214450000001431, -0.675379999992521, -0.955679999992916 ]
    mass: 1.007940
    reduced_to: 104
  - symbol: S  # 105
    coordinates: [ -0.433780000000850, -0.684239999998187, -0.290879999997953 ]
    mass: 32.065000
    reduced_to: 105
  - symbol: S  # 106
    coordinates: [ -0.563570000001019, -0.020339999994261, -0.838680000002268 ]
    mass: 32.065000
    reduced_to: 106
  - symbol: S  # 107
    coordinates: [ -0.377640000000301, -0.082620000001328, -0.139999999993995 ]
    mass: 32.065000
    reduced_to: 107
  - symbol: S  # 108
    coordinates: [ -0.507390000001143, -0.418699999992917, -0.687879999993543 ]
    mass: 32.065000
    reduced_to: 108

supercell:
  lattice:
  - [     2.527238672900000,     1.901683826800000,   -18.737440315099999 ] # a
  - [     1.381597810000000,   -17.783011192000000,     0.000000000000000 ] # b
  - [   -22.160200000000000,     0.000000000000000,     0.000000000000000 ] # c
  points:
  - symbol: C  # 1
    coordinates: [  0.514139999999706,  0.696470000001021,  0.978220000000730 ]
    mass: 12.010700
    reduced_to: 1
  - symbol: C  # 2
    coordinates: [  0.514139999999706,  0.196470000001021,  0.978220000000730 ]
    mass: 12.010700
    reduced_to: 1
  - symbol: C  # 3
    coordinates: [  0.514139999999706,  0.696470000001021,  0.228220000000730 ]
    mass: 12.010700
    reduced_to: 1
  - symbol: C  # 4