#Lammps data file. Generated with GRO2LAM converter.

 15120 atoms
 15680 bonds
 29960 angles
 50680 dihedrals
 280 impropers

 12 atom types
 9 bond types
 17 angle types
 33 dihedral types
 1 improper types


 0.0000 93.1489 xlo xhi
 0.0100 37.9677 ylo yhi
 0.0000 41.4514 zlo zhi

 Masses

 1 12.010736 # cc
 2 32.064787 # ss
 3 12.010736 # c2
 4 1.007941 # ha
 5 12.010736 # c3
 6 1.007941 # hc
 7 14.006703 # n
 8 12.010736 # c
 9 15.999405 # o
 10 78.959389 # UF_Se
 11 12.010736 # ce
 12 1.007941 # h1

 Pair Coeffs #

 1 0.08596 3.39967
 2 0.24988 3.56359
 3 0.08596 3.39967
 4 0.01499 2.59964
 5 0.10935 3.39967
 6 0.01569 2.64953
 7 0.16992 3.25000
 8 0.08596 3.39967
 9 0.20990 2.95992
 10 0.29086 3.74623
 11 0.08596 3.39967
 12 0.01569 2.47135

 Bond Coeffs #harmonic

 1 419.5994 1.4278
 2 265.6730 1.7562
 3 523.5497 1.3593
 4 348.9332 1.0837
 5 265.6730 1.7562
 6 523.5497 1.3593
 7 326.6438 1.5095
 8 300.7562 1.5375
 9 330.4421 1.0969

 Angle Coeffs #harmonic

 1 61.87043 120.21000
 2 67.86756 110.70000
 3 61.87043 120.21000
 4 66.16837 122.19000
 5 47.07750 121.07000
 6 48.67673 122.72000
 7 66.16837 90.24000
 8 67.86756 112.00000
 9 63.16980 125.19000
 10 60.77095 127.48000
 11 66.16837 122.19000
 12 47.07750 121.07000
 13 63.36971 111.56000
 14 46.97754 110.36000
 15 46.27788 109.80000
 16 39.38118 107.58000
 17 62.86995 111.51000

 Dihedral Coeffs #fourier

  1     0.00000 7.99618 0.00000 0.00000  # empty
  2     0.00000 7.99618 0.00000 0.00000
  3     0.00000 2.19894 0.00000 0.00000  # empty
  4     0.00000 2.19894 0.00000 0.00000
  5     0.00000 2.19894 0.00000 0.00000
  6     0.00000 7.99618 0.00000 0.00000
  7     0.00000 7.99618 0.00000 0.00000
  8     0.00000 7.99618 0.00000 0.00000
  9     0.00000 7.99618 0.00000 0.00000
  10    0.00000 7.99618 0.00000 0.00000  # empty
  11    0.00000 7.99618 0.00000 0.00000
  12    0.00000 0.00000 0.00000 0.00000  # sid_C-bcb
  13    0.00000 0.00000 0.00000 0.00000  # sid_H-bcb
  14    0.00000 7.99618 0.00000 0.00000
  15    0.00000 7.99618 0.00000 0.00000
  16    0.00000 7.99618 0.00000 0.00000
  17    0.00000 7.99618 0.00000 0.00000
  18    0.00000 7.99618 0.00000 0.00000
  19    0.00000 7.99618 0.00000 0.00000
  20    0.00000 7.99618 0.00000 0.00000
  21    0.00000 0.00000 0.31111 0.00000  # bcb_C-sid
  22    0.00000 0.00000 0.31111 0.00000  # bcb_C-sid
  23    0.00000 7.99618 0.00000 0.00000
  24    0.00000 7.99618 0.00000 0.00000  # empty
  25    0.00000 7.99618 0.00000 0.00000
  26    0.00000 7.99618 0.00000 0.00000
  27    0.00000 7.99618 0.00000 0.00000
  28    0.00000 7.99618 0.00000 0.00000
  29    0.00000 2.19895 0.00000 0.00000
  30   -0.40017 0.49976 0.35994 0.00000  # sidC_C
  31    0.00000 0.00000 0.32000 0.00000  # empty
  32    0.00000 0.00000 0.32000 0.00000  # sidC_H
  33    0.00000 0.00000 0.30000 0.00000  # sidH_H

 Improper Coeffs #cvff

 1 1.09947 -1 2

 Atoms #full

 1 1 1  0.2228  0.3000 36.3600  7.2900 # cc
 2 1 1 -0.5343  0.6300 36.0200  5.9600 # cc
 3 1 2 -0.1332  1.6700 36.6000  8.3600 # ss
 4 1 3  0.2016  1.9700 36.0800  5.6800 # c2
 5 1 4  0.2735 93.0000 35.7100  5.2400 # ha
 6 1 1 -0.1360  2.6100 36.4200  6.8600 # cc
 7 1 1 -0.0212  4.0300 36.5700  7.0300 # cc
 8 1 2  0.0098  5.2500 36.2500  5.7600 # ss
 9 1 1 -0.0969  4.5200 37.0000  8.3400 # cc
 10 1 1 -0.0415  6.3500 36.5100  7.0700 # cc
 11 1 1 -0.0469  5.9000 36.9800  8.3200 # cc
 12 1 4  0.1977  3.9100 37.1800  9.2500 # ha
 13 1 1 -0.1065  7.7700 36.4000  7.0300 # cc
 14 1 2  0.0097  7.1100 37.2200  9.5700 # ss
 15 1 1 -0.0118  8.3200 36.7700  8.3300 # cc
 16 1 4  0.2006  8.2800 36.1100  6.1600 # ha
 17 1 1 -0.1456  9.7800 36.8000  8.3900 # cc
 18 1 2 -0.1335 10.6900 36.3800  6.8900 # ss
 19 1 3  0.2114 10.4700 37.2100  9.5000 # c2
 20 1 1 -0.5419 11.8400 37.1200  9.1500 # cc
 21 1 4  0.2749 12.5900 37.3300  9.9600 # ha
 22 1 1  0.2319 12.1000 36.7000  7.9000 # cc
 23 1 5 -0.0214 10.0000 37.6200 10.8600 # c3
 24 1 5  0.1628  9.5400  1.1600 10.8600 # c3
 25 1 6  0.0104  9.2200 36.9300 11.2500 # hc
 26 1 6  0.0104 10.8200 37.4600 11.5900 # hc
 27 1 5 -0.0802  8.9500  1.5100 12.2500 # c3
 28 1 6 -0.0319 10.4100  1.8100 10.7000 # hc
 29 1 6 -0.0319  8.7800  1.4100 10.1100 # hc
 30 1 5  0.0443  8.3100  2.9200 12.3200 # c3
 31 1 6  0.0081  9.7200  1.3600 12.9700 # hc
 32 1 6  0.0081  8.1700  0.8200 12.5100 # hc
 33 1 5  0.0435  6.9900  2.9700 11.5000 # c3
 34 1 6 -0.0157  8.0900  3.2000 13.3800 # hc
 35 1 6 -0.0157  9.0300  3.6600 11.9500 # hc
 36 1 5  0.0041  5.8900  1.9400 11.8200 # c3
 37 1 6 -0.0126  6.5400  3.9600 11.5000 # hc
 38 1 6 -0.0126  7.1400  2.8300 10.4200 # hc
 39 1 5  0.0353  5.3900  1.9500 13.2900 # c3
 40 1 6 -0.0078  5.0100  2.3000 11.2700 # hc
 41 1 6 -0.0078  6.2200  0.9300 11.5100 # hc
 42 1 5  0.0156  4.4400  0.7900 13.6600 # c3
 43 1 6 -0.0154  6.1800  1.9500 14.0100 # hc
 44 1 6 -0.0154  4.8700  2.9000 13.4100 # hc
 45 1 5  0.0262  5.1000 37.3900 13.9400 # c3
 46 1 6 -0.0113  3.8800  1.0100 14.5800 # hc
 47 1 6 -0.0113  3.7600  0.6800 12.8300 # hc
 48 1 5  0.0589  4.1000 36.3200 14.3300 # c3
 49 1 6 -0.0116  5.6200 37.0400 13.0500 # hc
 50 1 6 -0.0116  5.8000 37.4800 14.7600 # hc
 51 1 5 -0.0186  2.8200 36.3100 13.4900 # c3
 52 1 6 -0.0190  4.7100 35.4400 14.0900 # hc
 53 1 6 -0.0190  3.8800 36.4400 15.4200 # hc
 54 1 5 -0.0058  1.9800 35.0500 13.6500 # c3
 55 1 6 -0.0070  2.1600 37.1800 13.7400 # hc
 56 1 6 -0.0070  3.1300 36.3300 12.4300 # hc
 57 1 5  0.1771  0.4800 35.2400 13.2700 # c3
 58 1 6 -0.0021  2.4100 34.2200 13.0500 # hc
 59 1 6 -0.0021  2.1300 34.7500 14.7100 # hc
 60 1 5 -0.2717 92.7900 33.9300 13.2600 # c3
 61 1 6 -0.0301 93.1200 35.8500 14.0300 # hc
 62 1 6 -0.0301  0.3900 35.7900 12.3100 # hc
 63 1 6  0.0594 93.1300 33.2600 12.4700 # hc
 64 1 6  0.0594 92.9100 33.4400 14.2200 # hc
 65 1 6  0.0594 91.7000 34.1100 13.1400 # hc
 66 1 5 -0.0192  2.4800 35.7300  4.2900 # c3
 67 1 5  0.1651  2.8400 36.9800  3.4100 # c3
 68 1 6  0.0109  3.2500 34.9600  4.3200 # hc
 69 1 6  0.0109  1.7300 35.1800  3.7300 # hc
 70 1 5 -0.0909  3.6400 36.6000  2.1200 # c3
 71 1 6 -0.0320  1.9300 37.5300  3.1500 # hc
 72 1 6 -0.0320  3.4000 37.6700  4.0000 # hc
 73 1 5  0.0590  3.9400 37.7800  1.1900 # c3
 74 1 6  0.0098  4.5700 36.0600  2.3900 # hc
 75 1 6  0.0098  3.0000 35.9100  1.5900 # hc
 76 1 5  0.0322  4.7700 37.3400 41.4000 # c3
 77 1 6 -0.0184  3.0000  0.2500  0.7900 # hc
 78 1 6 -0.0184  4.5400  0.5800  1.6900 # hc
 79 1 5  0.0121  5.2000  0.5300 40.4300 # c3
 80 1 6 -0.0106  5.6900 36.9000  0.3000 # hc
 81 1 6 -0.0106  4.2500 36.5400 40.8700 # hc
 82 1 5  0.0264  6.0300  0.1000 39.1900 # c3
 83 1 6 -0.0092  4.3100  1.1300 40.1400 # hc
 84 1 6 -0.0092  5.7800  1.2400 41.0600 # hc
 85 1 5  0.0241  6.4000  1.3700 38.3800 # c3
 86 1 6 -0.0135  6.9900 37.5300 39.4200 # hc
 87 1 6 -0.0135  5.4700 37.3300 38.5300 # hc
 88 1 5  0.0167  7.2400  1.1800 37.1000 # c3
 89 1 6 -0.0128  5.4800  1.8800 38.1500 # hc
 90 1 6 -0.0128  6.9700  2.0800 38.9900 # hc
 91 1 5  0.0707  7.3300  2.5100 36.3500 # c3
 92 1 6 -0.0100  8.2200  0.8200 37.3900 # hc
 93 1 6 -0.0100  6.7800  0.4200 36.4700 # hc
 94 1 5 -0.0288  8.0800  2.3400 35.0100 # c3
 95 1 6 -0.0212  6.3200  2.8300 36.1500 # hc
 96 1 6 -0.0212  7.7700  3.3100 36.9500 # hc
 97 1 5 -0.0003  9.5900  2.5100 35.2000 # c3
 98 1 6 -0.0051  7.8900  1.3000 34.6900 # hc
 99 1 6 -0.0051  7.7100  3.0400 34.2500 # hc
 100 1 5  0.1721 10.2800  2.6600 33.8400 # c3
 101 1 6 -0.0029  9.8700  3.3500 35.8800 # hc
 102 1 6 -0.0029  9.9300  1.5900 35.6600 # hc
 103 1 5 -0.2678 11.7900  2.9800 33.9700 # c3
 104 1 6 -0.0290 10.3000  1.7100 33.3100 # hc
 105 1 6 -0.0290  9.7300  3.3700 33.2100 # hc
 106 1 6  0.0585 11.9600  3.8200 34.6200 # hc
 107 1 6  0.0585 12.2800  2.1200 34.4200 # hc
 108 1 6  0.0585 12.2100  3.2100 32.9900 # hc
 109 1 1  0.2228 13.4800 36.6000  7.4000 # cc
 110 1 1 -0.5343 13.7700 36.2900  6.0700 # cc
 111 1 2 -0.1332 14.8500 36.8200  8.4200 # ss
 112 1 3  0.2016 15.1100 36.0100  5.8200 # c2
 113 1 4  0.2735 13.0300 36.2800  5.2800 # ha
 114 1 1 -0.1360 15.7700 36.3200  6.9700 # cc
 115 1 1 -0.0212 17.2500 36.3400  7.0800 # cc
 116 1 2  0.0098 18.3700 35.8200  5.8300 # ss
 117 1 1 -0.0969 17.8200 36.6800  8.3500 # cc
 118 1 1 -0.0415 19.6100 36.1000  7.0000 # cc
 119 1 1 -0.0469 19.2100 36.5300  8.2800 # cc
 120 1 4  0.1977 17.2300 37.0400  9.2100 # ha
 121 1 1 -0.1065 21.0700 36.1400  6.9100 # cc
 122 1 2  0.0097 20.4500 37.1000  9.3800 # ss
 123 1 1 -0.0118 21.6200 36.6300  8.1300 # cc
 124 1 4  0.2006 21.6100 35.8800  6.0100 # ha
 125 1 1 -0.1456 23.1400 36.7800  8.2400 # cc
 126 1 2 -0.1335 24.0100 36.1400  6.8000 # ss
 127 1 3  0.2114 23.8300 37.2700  9.2700 # c2
 128 1 1 -0.5419 25.2000 37.1000  9.0300 # cc
 129 1 4  0.2749 26.0100 37.3800  9.6700 # ha
 130 1 1  0.2319 25.4200 36.6600  7.6800 # cc
 131 1 5 -0.0214 23.4300  0.0600 10.5700 # c3
 132 1 5  0.1628 23.1400 37.0400 11.6700 # c3
 133 1 6  0.0104 24.3000  0.7000 10.8500 # hc
 134 1 6  0.0104 22.6000  0.8100 10.4100 # hc
 135 1 5 -0.0802 23.0900 37.6500 13.0800 # c3
 136 1 6 -0.0319 22.1800 36.4800 11.5700 # hc
 137 1 6 -0.0319 24.0000 36.3200 11.6900 # hc
 138 1 5  0.0443 22.2100  0.9600 13.2600 # c3
 139 1 6  0.0081 24.1400 37.8800 13.2400 # hc
 140 1 6  0.0081 22.7500 36.9000 13.7900 # hc
 141 1 5  0.0435 20.6900  0.6800 13.1200 # c3
 142 1 6 -0.0157 22.4600  1.3300 14.2700 # hc
 143 1 6 -0.0157 22.5100  1.7600 12.5600 # hc
 144 1 5  0.0041 20.0000 37.7200 14.1900 # c3
 145 1 6 -0.0126 20.1200  1.6000 13.2000 # hc
 146 1 6 -0.0126 20.4600  0.2600 12.1400 # hc
 147 1 5  0.0353 18.4500 37.8400 14.2600 # c3
 148 1 6 -0.0078 20.3300 36.6800 14.0100 # hc
 149 1 6 -0.0078 20.3400  0.0600 15.1600 # hc
 150 1 5  0.0156 17.7300 37.1300 13.1100 # c3
 151 1 6 -0.0154 18.1700 37.3200 15.1900 # hc
 152 1 6 -0.0154 18.0700  0.9400 14.3700 # hc
 153 1 5  0.0262 16.1700 36.9800 13.3800 # c3
 154 1 6 -0.0113 18.0000 37.5400 12.1500 # hc
 155 1 6 -0.0113 18.0400 36.1200 13.0100 # hc
 156 1 5  0.0589 15.3600 36.3300 12.2500 # c3
 157 1 6 -0.0116 16.0200 36.4000 14.2800 # hc
 158 1 6 -0.0116 15.7800 37.9500 13.5400 # hc
 159 1 5 -0.0186 13.9200 35.9000 12.5600 # c3
 160 1 6 -0.0190 15.3400 37.1000 11.4400 # hc
 161 1 6 -0.0190 15.8000 35.3800 12.0000 # hc
 162 1 5 -0.0058 13.6800 34.6000 13.4300 # c3
 163 1 6 -0.0070 13.4200 36.7100 13.0700 # hc
 164 1 6 -0.0070 13.4200 35.6700 11.5800 # hc
 165 1 5  0.1771 12.1700 34.3000 13.5700 # c3
 166 1 6 -0.0021 14.1800 33.7600 12.9700 # hc
 167 1 6 -0.0021 14.1600 34.6100 14.4100 # hc
 168 1 5 -0.2717 11.8900 32.9900 14.3600 # c3
 169 1 6 -0.0301 11.6200 35.1400 14.0300 # hc
 170 1 6 -0.0301 11.6700 34.1500 12.6300 # hc
 171 1 6  0.0594 11.8500 32.0900 13.7300 # hc
 172 1 6  0.0594 12.6600 32.7800 15.0800 # hc
 173 1 6  0.0594 10.9400 33.1800 14.8400 # hc
 174 1 5 -0.0192 15.5300 35.4900  4.4500 # c3
 175 1 5  0.1651 15.9800 36.6200  3.5100 # c3
 176 1 6  0.0109 16.3700 34.8200  4.6300 # hc
 177 1 6  0.0109 14.7100 34.9100  3.9700 # hc
 178 1 5 -0.0909 16.7800 36.1600  2.2200 # c3
 179 1 6 -0.0320 15.1200 37.2500  3.2700 # hc
 180 1 6 -0.0320 16.6100 37.2900  4.1100 # hc
 181 1 5  0.0590 17.0800 37.3000  1.2200 # c3
 182 1 6  0.0098 17.7600 35.8300  2.6300 # hc
 183 1 6  0.0098 16.3000 35.2900  1.7200 # hc
 184 1 5  0.0322 18.1200 37.0300  0.0700 # c3
 185 1 6 -0.0184 16.1900 37.8000  0.7600 # hc
 186 1 6 -0.0184 17.4300  0.1200  1.9100 # hc
 187 1 5  0.0121 18.2600  0.3200 40.5900 # c3
 188 1 6 -0.0106 19.1300 36.8100  0.4500 # hc
 189 1 6 -0.0106 17.8400 36.1300 40.9000 # hc
 190 1 5  0.0264 19.2200  0.0200 39.4600 # c3
 191 1 6 -0.0092 17.3300  0.6100 40.1200 # hc
 192 1 6 -0.0092 18.6400  1.1800 41.1800 # hc
 193 1 5  0.0241 19.4000  1.2000 38.4800 # c3
 194 1 6 -0.0135 20.1400 37.7500 39.9600 # hc
 195 1 6 -0.0135 18.8500 37.1000 38.8900 # hc
 196 1 5  0.0167 20.5900  1.0000 37.5100 # c3
 197 1 6 -0.0128 18.4800  1.1900 37.8900 # hc
 198 1 6 -0.0128 19.4900  2.1700 38.9700 # hc
 199 1 5  0.0707 20.7300  2.0000 36.3600 # c3
 200 1 6 -0.0100 21.5700  0.7700 38.0100 # hc
 201 1 6 -0.0100 20.3100  0.1100 37.0100 # hc
 202 1 5 -0.0288 22.0600  1.7800 35.5800 # c3
 203 1 6 -0.0212 19.9100  1.8800 35.6300 # hc
 204 1 6 -0.0212 20.6100  3.0200 36.7600 # hc
 205 1 5 -0.0003 22.2900  2.9600 34.6200 # c3
 206 1 6 -0.0051 22.8600  1.7500 36.3100 # hc
 207 1 6 -0.0051 22.1000  0.7900 35.0300 # hc
 208 1 5  0.1721 23.5800  2.8300 33.8100 # c3
 209 1 6 -0.0029 21.4400  3.0500 33.9400 # hc
 210 1 6 -0.0029 22.3400  3.9600 35.0800 # hc
 211 1 5 -0.2678 24.9000  2.7400 34.6100 # c3
 212 1 6 -0.0290 23.5400  1.9200 33.2100 # hc
 213 1 6 -0.0290 23.5700  3.6700 33.1000 # hc
 214 1 6  0.0585 25.0900  3.5300 35.3600 # hc
 215 1 6  0.0585 24.9800  1.7800 35.1400 # hc
 216 1 6  0.0585 25.6900  2.7500 33.8600 # hc
 217 1 1  0.2228 26.8000 36.6000  7.3000 # cc
 218 1 1 -0.5343 27.1400 36.3100  5.9500 # cc
 219 1 2 -0.1332 28.1400 36.7500  8.4000 # ss
 220 1 3  0.2016 28.5200 36.3200  5.7400 # c2
 221 1 4  0.2735 26.4600 35.9600  5.2000 # ha
 222 1 1 -0.1360 29.1600 36.5300  6.9800 # cc
 223 1 1 -0.0212 30.5700 36.4600  7.1800 # cc
 224 1 2  0.0098 31.8400 36.1700  5.9700 # ss
 225 1 1 -0.0969 31.0800 36.6400  8.5700 # cc
 226 1 1 -0.0415 32.9900 36.4200  7.2500 # cc
 227 1 1 -0.0469 32.5000 36.6100  8.5700 # cc
 228 1 4  0.1977 30.4400 36.8800  9.3900 # ha
 229 1 1 -0.1065 34.4000 36.3700  7.2000 # cc
 230 1 2  0.0097 33.7200 36.9700  9.7800 # ss
 231 1 1 -0.0118 34.9600 36.6000  8.5300 # cc
 232 1 4  0.2006 34.9500 36.1500  6.2900 # ha
 233 1 1 -0.1456 36.3800 36.4900  8.6500 # cc
 234 1 2 -0.1335 37.3400 36.2700  7.1900 # ss
 235 1 3  0.2114 37.1000 36.6200  9.8900 # c2
 236 1 1 -0.5419 38.4400 36.6800  9.6000 # cc
 237 1 4  0.2749 39.2000 36.9100 10.3400 # ha
 238 1 1  0.2319 38.7300 36.4600  8.2300 # cc
 239 1 5 -0.0214 36.5900 36.7100 11.3000 # c3
 240 1 5  0.1628 36.6900  0.2100 11.8100 # c3
 241 1 6  0.0104 35.5900 36.3700 11.3700 # hc
 242 1 6  0.0104 37.1200 36.0300 12.0100 # hc
 243 1 5 -0.0802 35.9100  0.5700 13.1200 # c3
 244 1 6 -0.0319 37.7900  0.3400 11.9000 # hc
 245 1 6 -0.0319 36.2700  0.8400 11.0200 # hc
 246 1 5  0.0443 36.1900  1.9600 13.7500 # c3
 247 1 6  0.0081 36.1500 37.7900 13.8700 # hc
 248 1 6  0.0081 34.8200  0.5000 12.9400 # hc
 249 1 5  0.0435 35.2700  2.3900 14.9100 # c3
 250 1 6 -0.0157 37.2500  1.9500 14.1000 # hc
 251 1 6 -0.0157 35.9700  2.7500 13.0400 # hc
 252 1 5  0.0041 35.4600  1.5800 16.1800 # c3
 253 1 6 -0.0126 35.5600  3.4300 15.0600 # hc
 254 1 6 -0.0126 34.2000  2.3600 14.5900 # hc
 255 1 5  0.0353 34.4200  1.7800 17.3000 # c3
 256 1 6 -0.0078 35.4400  0.5200 15.8300 # hc
 257 1 6 -0.0078 36.4300  1.8400 16.6500 # hc
 258 1 5  0.0156 34.6800  0.8800 18.4800 # c3
 259 1 6 -0.0154 34.4500  2.7900 17.7400 # hc
 260 1 6 -0.0154 33.4400  1.5100 16.8600 # hc
 261 1 5  0.0262 33.8500  1.2000 19.7300 # c3
 262 1 6 -0.0113 34.3700 37.8700 18.1000 # hc
 263 1 6 -0.0113 35.7700  0.8700 18.7500 # hc
 264 1 5  0.0589 32.3000  1.1200 19.5400 # c3
 265 1 6 -0.0116 34.1400  0.4400 20.4800 # hc
 266 1 6 -0.0116 34.1600  2.2200 20.0600 # hc
 267 1 5 -0.0186 31.5600  1.7200 20.7400 # c3
 268 1 6 -0.0190 31.9500  1.6700 18.6500 # hc
 269 1 6 -0.0190 32.0500  0.0300 19.4200 # hc
 270 1 5 -0.0058 30.0200  2.0300 20.6300 # c3
 271 1 6 -0.0070 31.6700  1.0200 21.5600 # hc
 272 1 6 -0.0070 32.0400  2.6200 21.1500 # hc
 273 1 5  0.1771 29.5400  2.8000 19.3700 # c3
 274 1 6 -0.0021 29.5500  1.0400 20.7100 # hc
 275 1 6 -0.0021 29.7300  2.6200 21.5000 # hc
 276 1 5 -0.2717 30.3700  4.0700 19.0300 # c3
 277 1 6 -0.0301 29.6600  2.1000 18.5500 # hc
 278 1 6 -0.0301 28.4600  3.0700 19.5200 # hc
 279 1 6  0.0594 31.3600  3.7600 18.6600 # hc
 280 1 6  0.0594 29.9700  4.7400 18.2500 # hc
 281 1 6  0.0594 30.4400  4.6500 19.9300 # hc
 282 1 5 -0.0192 29.0700 35.9700  4.3900 # c3
 283 1 5  0.1651 29.5800 37.1700  3.5700 # c3
 284 1 6  0.0109 29.8100 35.2000  4.5300 # hc
 285 1 6  0.0109 28.3400 35.4800  3.7800 # hc
 286 1 5 -0.0909 30.0700 36.7100  2.1700 # c3
 287 1 6 -0.0320 28.7900 37.9200  3.4500 # hc
 288 1 6 -0.0320 30.3700 37.6700  4.1100 # hc
 289 1 5  0.0590 30.5700 37.9500  1.3700 # c3
 290 1 6  0.0098 30.9200 36.0400  2.2300 # hc
 291 1 6  0.0098 29.2700 36.1600  1.6400 # hc
 292 1 5  0.0322 30.9500 37.5900 41.3900 # c3
 293 1 6 -0.0184 29.7700  0.7000  1.3000 # hc
 294 1 6 -0.0184 31.4100  0.4600  1.9200 # hc
 295 1 5  0.0121 31.6600  0.7600 40.5900 # c3
 296 1 6 -0.0106 31.6100 36.7200 41.4100 # hc
 297 1 6 -0.0106 29.9700 37.3400 40.9300 # hc
 298 1 5  0.0264 32.1900  0.3700 39.1600 # c3
 299 1 6 -0.0092 31.0700  1.6700 40.5800 # hc
 300 1 6 -0.0092 32.5100  1.1100 41.1600 # hc
 301 1 5  0.0241 32.8500  1.5600 38.4500 # c3
 302 1 6 -0.0135 32.9100 37.4800 39.2700 # hc
 303 1 6 -0.0135 31.3600  0.0400 38.5100 # hc
 304 1 5  0.0167 33.4600  1.0900 37.1200 # c3
 305 1 6 -0.0128 32.1200  2.3700 38.2900 # hc
 306 1 6 -0.0128 33.6800  1.9400 39.0800 # hc
 307 1 5  0.0707 34.2200  2.2000 36.3600 # c3
 308 1 6 -0.0100 34.0500  0.2600 37.4500 # hc
 309 1 6 -0.0100 32.7800  0.6400 36.3900 # hc
 310 1 5 -0.0288 35.1800  1.5400 35.3300 # c3
 311 1 6 -0.0212 33.4000  2.7800 35.9300 # hc
 312 1 6 -0.0212 34.7300  2.9000 37.0300 # hc
 313 1 5 -0.0003 36.2400  2.4400 34.6800 # c3
 314 1 6 -0.0051 35.7300  0.7700 35.8700 # hc
 315 1 6 -0.0051 34.6600  1.0400 34.5300 # hc
 316 1 5  0.1721 37.3500  2.8200 35.7200 # c3
 317 1 6 -0.0029 36.6700  1.9700 33.7600 # hc
 318 1 6 -0.0029 35.8200  3.3700 34.3700 # hc
 319 1 5 -0.2678 38.5600  3.4000 35.0100 # c3
 320 1 6 -0.0290 36.9300  3.5100 36.4700 # hc
 321 1 6 -0.0290 37.5600  1.9200 36.3100 # hc
 322 1 6  0.0585 38.2400  4.0500 34.2100 # hc
 323 1 6  0.0585 39.2700  3.9900 35.6800 # hc
 324 1 6  0.0585 39.0900  2.6100 34.4700 # hc
 325 1 1  0.2228 40.1300 36.3700  7.8300 # cc
 326 1 1 -0.5343 40.3600 36.1000  6.4300 # cc
 327 1 2 -0.1332 41.6300 36.4200  8.7000 # ss
 328 1 3  0.2016 41.6700 36.0000  6.0600 # c2
 329 1 4  0.2735 39.5400 35.9800  5.7700 # ha
 330 1 1 -0.1360 42.4700 36.1700  7.1500 # cc
 331 1 1 -0.0212 43.9400 36.0300  7.2200 # cc
 332 1 2  0.0098 45.0500 35.7600  5.8700 # ss
 333 1 1 -0.0969 44.5300 36.0900  8.5500 # cc
 334 1 1 -0.0415 46.3200 35.7700  7.0600 # cc
 335 1 1 -0.0469 45.9800 35.9300  8.4000 # cc
 336 1 4  0.1977 44.0500 36.2600  9.4800 # ha
 337 1 1 -0.1065 47.7400 35.9200  6.9100 # cc
 338 1 2  0.0097 47.2400 36.1100  9.5700 # ss
 339 1 1 -0.0118 48.3200 36.1000  8.1700 # cc
 340 1 4  0.2006 48.2300 35.8500  5.9300 # ha
 341 1 1 -0.1456 49.8000 36.2900  8.2900 # cc
 342 1 2 -0.1335 50.6400 36.0600  6.7000 # ss
 343 1 3  0.2114 50.4500 36.5000  9.4100 # c2
 344 1 1 -0.5419 51.8000 36.5200  9.0800 # cc
 345 1 4  0.2749 52.6000 36.7300  9.8000 # ha
 346 1 1  0.2319 52.0400 36.3500  7.7200 # cc
 347 1 5 -0.0214 50.0100 36.6800 10.8900 # c3
 348 1 5  0.1628 49.5200  0.1800 11.1400 # c3
 349 1 6  0.0104 49.2300 35.9600 11.2100 # hc
 350 1 6  0.0104 50.7900 36.4200 11.6500 # hc
 351 1 5 -0.0802 48.9900  0.3000 12.5600 # c3
 352 1 6 -0.0319 50.3800  0.8800 11.0400 # hc
 353 1 6 -0.0319 48.7500  0.5000 10.3700 # hc
 354 1 5  0.0443 48.1800  1.6000 12.8900 # c3
 355 1 6  0.0081 49.8600  0.2600 13.2400 # hc
 356 1 6  0.0081 48.4500 37.3900 12.9400 # hc
 357 1 5  0.0435 46.7400  1.7700 12.2400 # c3
 358 1 6 -0.0157 48.1300  1.6400 13.9600 # hc
 359 1 6 -0.0157 48.8000  2.4300 12.6200 # hc
 360 1 5  0.0041 45.7900  0.6000 12.4300 # c3
 361 1 6 -0.0126 46.2900  2.7400 12.5700 # hc
 362 1 6 -0.0126 46.8900  1.8900 11.1800 # hc
 363 1 5  0.0353 45.6100  0.2400 13.9400 # c3
 364 1 6 -0.0078 44.8500  0.7600 11.8600 # hc
 365 1 6 -0.0078 46.2500 37.6900 11.9400 # hc
 366 1 5  0.0156 45.1300  1.4300 14.8400 # c3
 367 1 6 -0.0154 44.9700 37.3400 14.1200 # hc
 368 1 6 -0.0154 46.6200 37.9500 14.2800 # hc
 369 1 5  0.0262 43.8600  2.1400 14.3700 # c3
 370 1 6 -0.0113 45.0600  1.0500 15.8700 # hc
 371 1 6 -0.0113 45.9700  2.1100 14.8900 # hc
 372 1 5  0.0589 43.6100  3.4600 15.2200 # c3
 373 1 6 -0.0116 43.9700  2.4200 13.3200 # hc
 374 1 6 -0.0116 43.0000  1.4700 14.4600 # hc
 375 1 5 -0.0186 42.8200  3.2200 16.4800 # c3
 376 1 6 -0.0190 44.6000  3.8400 15.5000 # hc
 377 1 6 -0.0190 43.0600  4.2200 14.6700 # hc
 378 1 5 -0.0058 42.6000  4.5100 17.3300 # c3
 379 1 6 -0.0070 41.8300  2.7600 16.1900 # hc
 380 1 6 -0.0070 43.4200  2.5100 17.0500 # hc
 381 1 5  0.1771 43.8700  5.1300 18.0300 # c3
 382 1 6 -0.0021 42.1600  5.3100 16.7100 # hc
 383 1 6 -0.0021 41.8200  4.2900 18.0400 # hc
 384 1 5 -0.2717 44.1200  4.6300 19.5100 # c3
 385 1 6 -0.0301 44.7100  5.0100 17.4100 # hc
 386 1 6 -0.0301 43.8400  6.1900 18.0300 # hc
 387 1 6  0.0594 44.5400  3.6500 19.5400 # hc
 388 1 6  0.0594 44.7400  5.3300 20.1000 # hc
 389 1 6  0.0594 43.1400  4.5400 19.9300 # hc
 390 1 5 -0.0192 42.0000 35.6500  4.6000 # c3
 391 1 5  0.1651 42.5700 36.8200  3.7300 # c3
 392 1 6  0.0109 42.6700 34.7700  4.6000 # hc
 393 1 6  0.0109 41.0500 35.3600  4.1300 # hc
 394 1 5 -0.0909 43.2300 36.3100  2.4400 # c3
 395 1 6 -0.0320 41.7600 37.5300  3.4800 # hc
 396 1 6 -0.0320 43.3100 37.3800  4.2900 # hc
 397 1 5  0.0590 43.7400 37.4300  1.4800 # c3
 398 1 6  0.0098 44.1100 35.7300  2.7700 # hc
 399 1 6  0.0098 42.4900 35.6700  1.9800 # hc
 400 1 5  0.0322 44.6400 36.9300  0.3300 # c3
 401 1 6 -0.0184 42.9500  0.1300  1.0400 # hc
 402 1 6 -0.0184 44.3700  0.0600  2.1300 # hc
 403 1 5  0.0121 44.8700  0.1000 40.7500 # c3
 404 1 6 -0.0106 45.6100 36.5900  0.7200 # hc
 405 1 6 -0.0106 44.1900 36.0500 41.3200 # hc
 406 1 5  0.0264 45.8900 37.6800 39.6500 # c3
 407 1 6 -0.0092 43.9200  0.3100 40.2400 # hc
 408 1 6 -0.0092 45.1800  1.0100 41.2600 # hc
 409 1 5  0.0241 46.2600  0.9400 38.7500 # c3
 410 1 6 -0.0135 46.8000 37.2600 40.1200 # hc
 411 1 6 -0.0135 45.3300 36.8900 39.1400 # hc
 412 1 5  0.0167 47.3800  0.7000 37.6700 # c3
 413 1 6 -0.0128 45.3900  1.3500 38.2300 # hc
 414 1 6 -0.0128 46.5400  1.7300 39.4600 # hc
 415 1 5  0.0707 47.7100  1.9200 36.8000 # c3
 416 1 6 -0.0100 48.3000  0.3900 38.2100 # hc
 417 1 6 -0.0100 47.0900 37.8300 36.9900 # hc
 418 1 5 -0.0288 48.8200  1.6100 35.7400 # c3
 419 1 6 -0.0212 46.7600  2.2800 36.3300 # hc
 420 1 6 -0.0212 48.1500  2.6700 37.4900 # hc
 421 1 5 -0.0003 49.3900  2.8400 34.9000 # c3
 422 1 6 -0.0051 49.5900  1.1000 36.3300 # hc
 423 1 6 -0.0051 48.5100  0.8000 35.0700 # hc
 424 1 5  0.1721 50.5100  2.5600 33.8700 # c3
 425 1 6 -0.0029 48.6400  3.4000 34.3300 # hc
 426 1 6 -0.0029 49.7800  3.5600 35.6000 # hc
 427 1 5 -0.2678 51.9400  2.6000 34.5200 # c3
 428 1 6 -0.0290 50.3800  1.6000 33.4200 # hc
 429 1 6 -0.0290 50.3800  3.2700 33.0100 # hc
 430 1 6  0.0585 52.0400  2.0100 35.4400 # hc
 431 1 6  0.0585 52.7100  2.2800 33.8100 # hc
 432 1 6  0.0585 52.1800  3.5800 34.8800 # hc
 433 1 1  0.2228 53.4500 36.2400  7.3000 # cc
 434 1 1 -0.5343 53.7400 35.8400  6.0000 # cc
 435 1 2 -0.1332 54.8600 36.4700  8.3200 # ss
 436 1 3  0.2016 55.0800 35.6900  5.7300 # c2
 437 1 4  0.2735 53.0100 35.6200  5.2100 # ha
 438 1 1 -0.1360 55.8100 36.0500  6.8900 # cc
 439 1 1 -0.0212 57.2300 36.0500  7.0300 # cc
 440 1 2  0.0098 58.4200 35.7600  5.7100 # ss
 441 1 1 -0.0969 57.7800 36.4100  8.3300 # cc
 442 1 1 -0.0415 59.5800 36.0400  6.9800 # cc
 443 1 1 -0.0469 59.1900 36.4200  8.2600 # cc
 444 1 4  0.1977 57.2500 36.6700  9.2700 # ha
 445 1 1 -0.1065 60.9800 35.8200  6.9600 # cc
 446 1 2  0.0097 60.4300 36.6500  9.5000 # ss
 447 1 1 -0.0118 61.6000 36.1900  8.1900 # cc
 448 1 4  0.2006 61.4700 35.5000  6.0400 # ha
 449 1 1 -0.1456 63.0500 36.1300  8.2800 # cc
 450 1 2 -0.1335 63.8800 35.5800  6.7500 # ss
 451 1 3  0.2114 63.8600 36.3700  9.3600 # c2
 452 1 1 -0.5419 65.1200 36.1800  9.0500 # cc
 453 1 4  0.2749 66.0100 36.3000  9.7000 # ha
 454 1 1  0.2319 65.3600 35.7900  7.6500 # cc
 455 1 5 -0.0214 63.4200 36.8600 10.7900 # c3
 456 1 5  0.1628 63.3500  0.4500 10.9000 # c3
 457 1 6  0.0104 62.4800 36.4500 11.1500 # hc
 458 1 6  0.0104 64.1200 36.4800 11.5100 # hc
 459 1 5 -0.0802 62.9200  0.9200 12.3200 # c3
 460 1 6 -0.0319 64.2700  0.9600 10.5800 # hc
 461 1 6 -0.0319 62.6100  0.6700 10.1500 # hc
 462 1 5  0.0443 62.6400  2.4600 12.5200 # c3
 463 1 6  0.0081 63.7200  0.5900 13.0100 # hc
 464 1 6  0.0081 61.9900  0.4200 12.5800 # hc
 465 1 5  0.0435 61.6500  3.1200 11.5300 # c3
 466 1 6 -0.0157 62.2300  2.6900 13.5200 # hc
 467 1 6 -0.0157 63.5600  3.0100 12.5200 # hc
 468 1 5  0.0041 60.2700  2.4300 11.5200 # c3
 469 1 6 -0.0126 61.6300  4.1800 11.8300 # hc
 470 1 6 -0.0126 62.0200  3.0800 10.4700 # hc
 471 1 5  0.0353 59.4900  2.3100 12.8700 # c3
 472 1 6 -0.0078 59.5700  2.9800 10.9000 # hc
 473 1 6 -0.0078 60.4100  1.4300 11.0800 # hc
 474 1 5  0.0156 58.2800  1.3100 12.8600 # c3
 475 1 6 -0.0154 60.2000  2.1200 13.6800 # hc
 476 1 6 -0.0154 59.1400  3.3200 13.1100 # hc
 477 1 5  0.0262 58.6800 37.7600 12.7300 # c3
 478 1 6 -0.0113 57.7000  1.5100 13.7800 # hc
 479 1 6 -0.0113 57.5300  1.4700 12.0600 # hc
 480 1 5  0.0589 57.4300 36.8400 12.6900 # c3
 481 1 6 -0.0116 59.3200 37.5900 11.8600 # hc
 482 1 6 -0.0116 59.2900 37.3900 13.5200 # hc
 483 1 5 -0.0186 56.4700 37.0200 13.8900 # c3
 484 1 6 -0.0190 56.9300 36.9200 11.7400 # hc
 485 1 6 -0.0190 57.8200 35.8400 12.7400 # hc
 486 1 5 -0.0058 55.2100 36.1400 13.8200 # c3
 487 1 6 -0.0070 56.9800 36.6700 14.7900 # hc
 488 1 6 -0.0070 56.0700  0.0800 13.9700 # hc
 489 1 5  0.1771 54.4400 36.1400 12.5000 # c3
 490 1 6 -0.0021 55.4900 35.1400 14.2400 # hc
 491 1 6 -0.0021 54.4900 36.5700 14.5200 # hc
 492 1 5 -0.2717 53.2300 35.2100 12.6200 # c3
 493 1 6 -0.0301 54.0300 37.1400 12.2800 # hc
 494 1 6 -0.0301 55.0400 35.7900 11.6400 # hc
 495 1 6  0.0594 52.6600 35.0700 11.6800 # hc
 496 1 6  0.0594 53.6700 34.2700 12.9500 # hc
 497 1 6  0.0594 52.5300 35.5600 13.3800 # hc
 498 1 5 -0.0192 55.5400 35.2100  4.4100 # c3
 499 1 5  0.1651 55.8400 36.3800  3.4500 # c3
 500 1 6  0.0109 56.3800 34.5000  4.4900 # hc
 501 1 6  0.0109 54.7400 34.6300  3.9300 # hc
 502 1 5 -0.0909 56.6600 35.9300  2.2400 # c3
 503 1 6 -0.0320 54.8800 36.8500  3.1300 # hc
 504 1 6 -0.0320 56.5100 37.0900  3.9400 # hc
 505 1 5  0.0590 57.0700 37.1300  1.3100 # c3
 506 1 6  0.0098 57.5400 35.4000  2.6200 # hc
 507 1 6  0.0098 56.0400 35.2100  1.7100 # hc
 508 1 5  0.0322 58.2300 36.8700  0.2900 # c3
 509 1 6 -0.0184 56.1900 37.3600  0.7100 # hc
 510 1 6 -0.0184 57.3300  0.0600  1.9100 # hc
 511 1 5  0.0121 58.2800 37.9200 40.6200 # c3
 512 1 6 -0.0106 59.2100 36.9000  0.7700 # hc
 513 1 6 -0.0106 58.1200 35.9000 41.2500 # hc
 514 1 5  0.0264 59.5300 37.7900 39.6900 # c3
 515 1 6 -0.0092 57.3900 37.7700 40.0300 # hc
 516 1 6 -0.0092 58.2300  0.9700 41.0200 # hc
 517 1 5  0.0241 59.5600  0.8900 38.5500 # c3
 518 1 6 -0.0135 60.4100 37.9100 40.2900 # hc
 519 1 6 -0.0135 59.6000 36.7600 39.2900 # hc
 520 1 5  0.0167 60.8600  0.7500 37.7300 # c3
 521 1 6 -0.0128 58.6800  0.7300 37.9100 # hc
 522 1 6 -0.0128 59.4600  1.9500 38.8900 # hc
 523 1 5  0.0707 61.0000  1.7700 36.5800 # c3
 524 1 6 -0.0100 61.7800  0.8400 38.3700 # hc
 525 1 6 -0.0100 60.8600 37.7300 37.2200 # hc
 526 1 5 -0.0288 62.3500  1.7100 35.8900 # c3
 527 1 6 -0.0212 60.2400  1.5300 35.8300 # hc
 528 1 6 -0.0212 60.8500  2.8200 36.9200 # hc
 529 1 5 -0.0003 62.5000  2.5900 34.6200 # c3
 530 1 6 -0.0051 63.1400  1.9300 36.6500 # hc
 531 1 6 -0.0051 62.5200  0.7100 35.4900 # hc
 532 1 5  0.1721 63.8400  2.3400 33.9200 # c3
 533 1 6 -0.0029 61.7000  2.3300 33.9100 # hc
 534 1 6 -0.0029 62.3600  3.6400 34.8700 # hc
 535 1 5 -0.2678 65.1200  2.5800 34.7100 # c3
 536 1 6 -0.0290 63.8900  1.3000 33.5700 # hc
 537 1 6 -0.0290 63.9300  3.0200 33.0700 # hc
 538 1 6  0.0585 65.1500  1.8400 35.5300 # hc
 539 1 6  0.0585 65.9600  2.4500 34.0300 # hc
 540 1 6  0.0585 65.2200  3.6200 35.0600 # hc
 541 1 1  0.2228 66.7000 35.8800  7.1500 # cc
 542 1 1 -0.5343 67.0000 35.5300  5.7600 # cc
 543 1 2 -0.1332 68.1300 36.1800  8.0800 # ss
 544 1 3  0.2016 68.3300 35.4900  5.4600 # c2
 545 1 4  0.2735 66.2100 35.3200  5.0500 # ha
 546 1 1 -0.1360 69.0600 35.8100  6.5600 # cc
 547 1 1 -0.0212 70.5300 35.9000  6.6700 # cc
 548 1 2  0.0098 71.7300 35.5900  5.3800 # ss
 549 1 1 -0.0969 71.0700 36.2300  7.9800 # cc
 550 1 1 -0.0415 72.9300 35.9700  6.6100 # cc
 551 1 1 -0.0469 72.4800 36.2500  7.9200 # cc
 552 1 4  0.1977 70.5200 36.3300  8.9000 # ha
 553 1 1 -0.1065 74.3200 36.0100  6.5900 # cc
 554 1 2  0.0097 73.6600 36.4900  9.1700 # ss
 555 1 1 -0.0118 74.8800 36.1400  7.9300 # cc
 556 1 4  0.2006 74.8900 35.8900  5.6900 # ha
 557 1 1 -0.1456 76.3200 36.2100  8.0700 # cc
 558 1 2 -0.1335 77.3100 35.8900  6.5900 # ss
 559 1 3  0.2114 76.9800 36.5300  9.2300 # c2
 560 1 1 -0.5419 78.2900 36.6100  8.9500 # cc
 561 1 4  0.2749 79.0100 36.8200  9.7500 # ha
 562 1 1  0.2319 78.6700 36.3100  7.6100 # cc
 563 1 5 -0.0214 76.4300 36.8300 10.6600 # c3
 564 1 5  0.1628 76.0200  0.3800 10.9300 # c3
 565 1 6  0.0104 75.6500 36.1600 10.9800 # hc
 566 1 6  0.0104 77.1800 36.5400 11.3900 # hc
 567 1 5 -0.0802 75.6100  0.6100 12.3800 # c3
 568 1 6 -0.0319 76.9100  1.0100 10.6700 # hc
 569 1 6 -0.0319 75.1300  0.6200 10.3500 # hc
 570 1 5  0.0443 75.7100  2.0800 12.8500 # c3
 571 1 6  0.0081 76.2900 37.9400 12.9800 # hc
 572 1 6  0.0081 74.5800  0.2600 12.6000 # hc
 573 1 5  0.0435 74.6200  3.0500 12.3200 # c3
 574 1 6 -0.0157 75.6000  2.1500 13.9200 # hc
 575 1 6 -0.0157 76.7300  2.4400 12.5700 # hc
 576 1 5  0.0041 73.1100  2.8400 12.6400 # c3
 577 1 6 -0.0126 75.0400  4.0400 12.6100 # hc
 578 1 6 -0.0126 74.6800  2.9700 11.2400 # hc
 579 1 5  0.0353 72.6400  3.0400 14.1100 # c3
 580 1 6 -0.0078 72.5300  3.5000 11.9500 # hc
 581 1 6 -0.0078 72.8500  1.7900 12.3900 # hc
 582 1 5  0.0156 71.1400  3.3900 14.2200 # c3
 583 1 6 -0.0154 72.8800  2.0900 14.5900 # hc
 584 1 6 -0.0154 73.2900  3.7200 14.6600 # hc
 585 1 5  0.0262 70.8100  3.6400 15.6900 # c3
 586 1 6 -0.0113 70.9100  4.2800 13.5900 # hc
 587 1 6 -0.0113 70.5600  2.5400 13.8200 # hc
 588 1 5  0.0589 69.3500  3.3800 16.1100 # c3
 589 1 6 -0.0116 71.4500  2.9600 16.3100 # hc
 590 1 6 -0.0116 71.0200  4.6800 15.9500 # hc
 591 1 5 -0.0186 69.1400  3.7000 17.6000 # c3