LAMMPS (2 Aug 2023 - Update 2)
OMP_NUM_THREADS environment is not set. Defaulting to 1 thread. (src/comm.cpp:98)
  using 1 OpenMP thread(s) per MPI task
Reading restart file ...
  restart file = 23 Jun 2022, LAMMPS = 2 Aug 2023
WARNING: Restart file used different # of processors: 128 vs. 64 (src/read_restart.cpp:661)
  restoring atom style full from restart
  orthogonal box = (-0.39870732 -0.022494239 -0.035485071) to (466.14321 38.000194 41.486885)
  16 by 2 by 2 MPI processor grid
  restoring pair style lj/cut/coul/long from restart
  restoring bond style harmonic from restart
  restoring angle style harmonic from restart
  restoring dihedral style opls from restart
  restoring improper style cvff from restart
  75600 atoms
  78400 bonds
  149800 angles
  253400 dihedrals
  1400 impropers
Finding 1-2 1-3 1-4 neighbors ...
  special bond factors lj:    0        0        0.5     
  special bond factors coul:  0        0        0.8333333333333334
     4 = max # of 1-2 neighbors
     7 = max # of 1-3 neighbors
    15 = max # of 1-4 neighbors
    16 = max # of special neighbors
  special bonds CPU = 0.020 seconds
  read_restart CPU = 0.175 seconds
PPPM initialization ...
WARNING: System is not charge neutral, net charge = -0.14 (src/kspace.cpp:327)
  using 12-bit tables for long-range coulomb (src/kspace.cpp:342)
  G vector (1/distance) = 0.24346643
  grid = 135 20 20
  stencil order = 5
  estimated absolute RMS force accuracy = 0.0033594086
  estimated relative force accuracy = 1.0116759e-05
  using double precision KISS FFT
  3d grid and FFT values/proc = 3570 1215
Generated 66 of 66 mixed pair_coeff terms from arithmetic mixing rule
Neighbor list info ...
  update: every = 1 steps, delay = 0 steps, check = yes
  max neighbors/atom: 2000, page size: 100000
  master list distance cutoff = 12
  ghost atom cutoff = 12
  binsize = 6, bins = 78 7 7
  1 neighbor lists, perpetual/occasional/extra = 1 0 0
  (1) pair lj/cut/coul/long, perpetual
      attributes: half, newton on
      pair build: half/bin/newton
      stencil: half/bin/3d
      bin: standard
Setting up Verlet run ...
  Unit style    : real
  Current step  : 500000
  Time step     : 0.5
WARNING: Inconsistent image flags (src/domain.cpp:815)
Per MPI rank memory allocation (min/avg/max) = 15.4 | 15.77 | 15.81 Mbytes
   Step          Temp     
    500000   300.84508    
    501000   302.84522    
    502000   301.98323    
    503000   303.13791    
    504000   303.22494    
    505000   302.74967    
    506000   302.35236    
    507000   303.27179    
    508000   302.59744    
    509000   302.857      
    510000   304.02859    
    511000   302.68582    
    512000   302.80167    
    513000   303.34451    
    514000   303.54368    
    515000   302.95608    
    516000   302.84811    
    517000   303.71702    
    518000   302.27561    
    519000   302.44004    
    520000   302.40046    
    521000   302.56805    
    522000   302.42125    
    523000   303.3419     
    524000   303.17851    
    525000   303.31867    
    526000   302.40656    
    527000   302.78285    
    528000   302.76319    
    529000   303.49974    
    530000   303.44204    
    531000   302.37449    
    532000   303.36365    
    533000   303.23695    
    534000   302.8159     
    535000   304.18748    
    536000   301.44351    
    537000   303.06251    
    538000   303.461      
    539000   302.57508    
    540000   302.60676    
    541000   303.81734    
    542000   302.57652    
    543000   304.18969    
    544000   303.58071    
    545000   303.61836    
    546000   303.23834    
    547000   303.4352     
    548000   303.46898    
    549000   303.09066    
    550000   302.22735    
    551000   303.81104    
    552000   301.75158    
    553000   302.80088    
    554000   303.85218    
    555000   303.34442    
    556000   303.29925    
    557000   303.16976    
    558000   302.40993    
    559000   303.12953    
    560000   302.20342    
    561000   302.14607    
    562000   303.80981    
    563000   303.86637    
    564000   302.72754    
    565000   303.4898     
    566000   302.5672     
    567000   302.85747    
    568000   303.7524     
    569000   302.30616    
    570000   302.60237    
    571000   302.66413    
    572000   302.67237    
    573000   304.46696    
    574000   302.79679    
    575000   303.54339    
    576000   303.02685    
    577000   302.89839    
    578000   302.9882     
    579000   303.25651    
    580000   302.18929    
    581000   303.88623    
    582000   302.54125    
    583000   303.59678    
    584000   302.19463    
    585000   303.01747    
    586000   302.58164    
    587000   302.68691    
    588000   302.37198    
    589000   304.0519     
    590000   302.94473    
    591000   304.43081    
    592000   303.03892    
    593000   304.0863     
    594000   302.52439    
    595000   302.90166    
    596000   303.65062    
    597000   303.20568    
    598000   301.066      
    599000   302.84616    
    600000   303.43053    
Loop time of 1504.81 on 64 procs for 100000 steps with 75600 atoms

Performance: 2.871 ns/day, 8.360 hours/ns, 66.453 timesteps/s, 5.024 Matom-step/s
99.0% CPU use with 64 MPI tasks x 1 OpenMP threads

MPI task timing breakdown:
Section |  min time  |  avg time  |  max time  |%varavg| %total
---------------------------------------------------------------
Pair    | 803.57     | 886.14     | 961.35     | 165.4 | 58.89
Bond    | 207.73     | 218.23     | 229.6      |  35.0 | 14.50
Kspace  | 227.42     | 312.13     | 400.01     | 301.1 | 20.74
Neigh   | 38.76      | 38.857     | 38.944     |   0.7 |  2.58
Comm    | 26.967     | 30.121     | 33.359     |  30.9 |  2.00
Output  | 0.01181    | 0.014071   | 0.019413   |   1.1 |  0.00
Modify  | 1.8966     | 2.1238     | 2.498      |   8.6 |  0.14
Other   |            | 17.2       |            |       |  1.14

Nlocal:        1181.25 ave        1232 max        1126 min
Histogram: 2 5 2 9 13 8 8 7 8 2
Nghost:        9147.61 ave        9276 max        9012 min
Histogram: 2 1 3 10 15 13 9 8 2 1
Neighs:         440450 ave      480005 max      396999 min
Histogram: 6 7 9 3 5 3 7 8 10 6

Total # of neighbors = 28188798
Ave neighs/atom = 372.8677
Ave special neighs/atom = 11.555556
Neighbor list builds = 2086
Dangerous builds = 0
System init for write_restart ...
PPPM initialization ...
  using 12-bit tables for long-range coulomb (src/kspace.cpp:342)
  G vector (1/distance) = 0.24346643
  grid = 135 20 20
  stencil order = 5
  estimated absolute RMS force accuracy = 0.0033594086
  estimated relative force accuracy = 1.0116759e-05
  using double precision KISS FFT
  3d grid and FFT values/proc = 3570 1215
Generated 66 of 66 mixed pair_coeff terms from arithmetic mixing rule
Total wall time: 0:25:05
LAMMPS (2 Aug 2023 - Update 2)
OMP_NUM_THREADS environment is not set. Defaulting to 1 thread. (src/comm.cpp:98)
  using 1 OpenMP thread(s) per MPI task
Reading restart file ...
  restart file = 2 Aug 2023, LAMMPS = 2 Aug 2023
  restoring atom style full from restart
  orthogonal box = (-0.39870732 -0.022494239 -0.035485071) to (466.14321 38.000194 41.486885)
  16 by 2 by 2 MPI processor grid
  restoring pair style lj/cut/coul/long from restart
  restoring bond style harmonic from restart
  restoring angle style harmonic from restart
  restoring dihedral style opls from restart
  restoring improper style cvff from restart
  75600 atoms
  78400 bonds
  149800 angles
  253400 dihedrals
  1400 impropers
Finding 1-2 1-3 1-4 neighbors ...
  special bond factors lj:    0        0        0.5     
  special bond factors coul:  0        0        0.8333333333333334
     4 = max # of 1-2 neighbors
     7 = max # of 1-3 neighbors
    15 = max # of 1-4 neighbors
    16 = max # of special neighbors
  special bonds CPU = 0.021 seconds
  read_restart CPU = 0.261 seconds
PPPM initialization ...
WARNING: System is not charge neutral, net charge = -0.14 (src/kspace.cpp:327)
  using 12-bit tables for long-range coulomb (src/kspace.cpp:342)
  G vector (1/distance) = 0.24346643
  grid = 135 20 20
  stencil order = 5
  estimated absolute RMS force accuracy = 0.0033594086
  estimated relative force accuracy = 1.0116759e-05
  using double precision KISS FFT
  3d grid and FFT values/proc = 3570 1215
Generated 66 of 66 mixed pair_coeff terms from arithmetic mixing rule
Neighbor list info ...
  update: every = 1 steps, delay = 0 steps, check = yes
  max neighbors/atom: 2000, page size: 100000
  master list distance cutoff = 12
  ghost atom cutoff = 12
  binsize = 6, bins = 78 7 7
  1 neighbor lists, perpetual/occasional/extra = 1 0 0
  (1) pair lj/cut/coul/long, perpetual
      attributes: half, newton on
      pair build: half/bin/newton
      stencil: half/bin/3d
      bin: standard
Setting up Verlet run ...
  Unit style    : real
  Current step  : 0
  Time step     : 0.5
WARNING: Inconsistent image flags (src/domain.cpp:815)
Per MPI rank memory allocation (min/avg/max) = 15.77 | 15.79 | 15.82 Mbytes
   Step          Temp          Press          PotEng         KinEng         TotEng    
         0   303.43053      148.53498      86089.36       68376.936      154466.3     
      1000   303.34424     -23.534534      86108.633      68357.491      154466.12    
      2000   303.00932      225.83005      86185.119      68282.017      154467.14    
      3000   302.57273     -86.4971        86283.039      68183.633      154466.67    
      4000   303.13325     -114.39813      86156.255      68309.943      154466.2     
      5000   303.35093      24.281474      86107.821      68358.998      154466.82    
      6000   304.46306     -340.14642      85855.897      68609.611      154465.51    
      7000   302.60864      282.3818       86273.909      68191.724      154465.63    
      8000   302.91187      91.768637      86207.359      68260.056      154467.41    
      9000   302.76925     -83.14661       86240.292      68227.918      154468.21    
     10000   304.41917      87.218055      85867.124      68599.721      154466.84    
     11000   302.43076     -387.70898      86314.002      68151.641      154465.64    
     12000   301.78865     -573.5287       86459.315      68006.943      154466.26    
     13000   301.78247     -94.412254      86462.209      68005.55       154467.76    
     14000   303.63429      396.26852      86044.309      68422.851      154467.16    
     15000   302.63609     -344.6888       86271.36       68197.911      154469.27    
     16000   303.37173      25.115328      86101.89       68363.685      154465.58    
     17000   303.50789      164.38953      86070.345      68394.368      154464.71    
     18000   302.85285      294.07617      86217.748      68246.757      154464.51    
     19000   302.97888      139.39895      86190.702      68275.157      154465.86    
     20000   303.37448      220.98367      86101.525      68364.304      154465.83    
     21000   302.38087     -241.45376      86326.539      68140.398      154466.94    
     22000   302.97393     -184.96095      86192.286      68274.041      154466.33    
     23000   303.01716     -6.1393399      86181.666      68283.782      154465.45    
     24000   304.18253     -273.24237      85919.457      68546.395      154465.85    
     25000   303.31773     -174.97689      86116.001      68351.516      154467.52    
     26000   303.32707     -185.38021      86111.473      68353.621      154465.09    
     27000   302.73722      234.88713      86244.622      68220.701      154465.32    
     28000   303.55523     -32.287157      86061.056      68405.035      154466.09    
     29000   303.57879     -74.997369      86057.264      68410.344      154467.61    
     30000   303.33532     -354.70287      86109.609      68355.479      154465.09    
     31000   303.28661      73.107596      86122.238      68344.503      154466.74    
     32000   303.78568     -40.763608      86009.702      68456.967      154466.67    
     33000   302.5443      -107.90161      86292.294      68177.225      154469.52    
     34000   303.7834      -192.10661      86009.635      68456.453      154466.09    
     35000   303.41581     -312.66566      86091.949      68373.618      154465.57    
     36000   303.88749      92.943436      85986.06       68479.908      154465.97    
     37000   302.28089      100.30314      86347.62       68117.868      154465.49    
     38000   302.11515      193.67522      86386.845      68080.518      154467.36    
     39000   302.96573     -107.6523       86195.248      68272.194      154467.44    
     40000   303.40244     -70.139221      86098.409      68370.606      154469.01    
     41000   304.24895      112.41582      85904.11       68561.362      154465.47    
     42000   302.73772      76.1778        86248.156      68220.812      154468.97    
     43000   302.42858     -236.97458      86315.123      68151.149      154466.27    
     44000   301.92441     -627.65726      86431.37       68037.537      154468.91    
     45000   302.32106     -88.697356      86340.201      68126.919      154467.12    
     46000   303.13239     -384.14825      86158.773      68309.751      154468.52    
     47000   302.33559     -243.56366      86339.641      68130.194      154469.83    
     48000   302.98345     -159.14327      86189.459      68276.187      154465.65    
     49000   302.76716     -127.9679       86239.345      68227.447      154466.79    
     50000   302.99232     -114.48841      86191.195      68278.185      154469.38    
     51000   302.90028     -7.7987861      86210.548      68257.445      154467.99    
     52000   302.9368       256.07401      86202.227      68265.675      154467.9     
     53000   303.65334     -404.72806      86042.605      68427.143      154469.75    
     54000   303.70141     -159.57919      86030.336      68437.978      154468.31    
     55000   303.12678     -324.55104      86158.427      68308.485      154466.91    
     56000   302.6104       234.453        86276.89       68192.122      154469.01    
     57000   303.25595     -351.00067      86129.459      68337.593      154467.05    
     58000   303.22807      28.38711       86135.059      68331.311      154466.37    
     59000   303.8232      -45.919949      86002.535      68465.421      154467.96    
     60000   302.60474     -146.79327      86273.574      68190.847      154464.42    
     61000   304.1639       270.77562      85921.603      68542.197      154463.8     
     62000   302.82367     -51.713281      86227.169      68240.18       154467.35    
     63000   303.16743     -167.06224      86147.548      68317.646      154465.19    
     64000   304.13544     -350.27546      85931.922      68535.784      154467.71    
     65000   303.91017      346.75599      85980.703      68485.02       154465.72    
     66000   302.30505     -20.663492      86344.636      68123.313      154467.95    
     67000   302.24346      238.54373      86359.079      68109.432      154468.51    
     68000   302.98973      159.5678       86189.802      68277.603      154467.4     
     69000   302.67562      214.30093      86262.956      68206.819      154469.78    
     70000   303.57537      29.019531      86056.495      68409.574      154466.07    
     71000   302.54273     -111.45293      86293.662      68176.873      154470.53    
     72000   302.64754      81.576828      86268.557      68200.49       154469.05    
     73000   303.10493     -568.34251      86164.966      68303.562      154468.53    
     74000   303.26659     -47.99425       86126.064      68339.991      154466.06    
     75000   303.18054     -136.97769      86147.087      68320.601      154467.69    
     76000   301.49548     -399.63553      86531.157      67940.879      154472.04    
     77000   303.15161     -64.523356      86154.133      68314.082      154468.21    
     78000   303.60621     -318.86769      86050.459      68416.524      154466.98    
     79000   303.66949      215.4548       86035.373      68430.784      154466.16    
     80000   302.45328      75.350908      86313.371      68156.715      154470.09    
Loop time of 1331.14 on 64 procs for 80000 steps with 75600 atoms

Performance: 2.596 ns/day, 9.244 hours/ns, 60.099 timesteps/s, 4.543 Matom-step/s
98.9% CPU use with 64 MPI tasks x 1 OpenMP threads

MPI task timing breakdown:
Section |  min time  |  avg time  |  max time  |%varavg| %total
---------------------------------------------------------------
Pair    | 645.32     | 709.87     | 771.98     | 148.3 | 53.33
Bond    | 165.43     | 174.84     | 184.06     |  31.4 | 13.13
Kspace  | 208.19     | 278.13     | 347.38     | 256.1 | 20.89
Neigh   | 32.38      | 32.447     | 32.513     |   0.6 |  2.44
Comm    | 23.749     | 26.589     | 30.493     |  37.3 |  2.00
Output  | 37.811     | 64.275     | 91.972     | 197.5 |  4.83
Modify  | 1.5812     | 1.7294     | 1.8527     |   5.1 |  0.13
Other   |            | 43.25      |            |       |  3.25

Nlocal:        1181.25 ave        1230 max        1112 min
Histogram: 1 1 6 5 7 11 14 10 4 5
Nghost:        9151.81 ave        9287 max        9041 min
Histogram: 5 7 6 6 9 17 5 4 3 2
Neighs:         440444 ave      480289 max      389033 min
Histogram: 2 8 5 5 10 1 5 10 11 7

Total # of neighbors = 28188406
Ave neighs/atom = 372.86251
Ave special neighs/atom = 11.555556
Neighbor list builds = 1680
Dangerous builds = 0
System init for write_restart ...
PPPM initialization ...
  using 12-bit tables for long-range coulomb (src/kspace.cpp:342)
  G vector (1/distance) = 0.24346643
  grid = 135 20 20
  stencil order = 5
  estimated absolute RMS force accuracy = 0.0033594086
  estimated relative force accuracy = 1.0116759e-05
  using double precision KISS FFT
  3d grid and FFT values/proc = 3570 1215
Generated 66 of 66 mixed pair_coeff terms from arithmetic mixing rule
Total wall time: 0:22:11
DEBUG: Using trajectory reader: LammpsTrajectoryReader
INFO: Trajectory file: dump.lammpstrj
INFO: Total number of particles: 75600
INFO: Number of atom types: 1
INFO: Number of atoms of type X: 75600
INFO: Simulation cell (in Angstrom):
[[466.54191465   0.           0.        ]
 [  0.          38.02268848   0.        ]
 [  0.           0.          41.52237014]]
INFO: Spacing between samples (frame_step): 1
INFO: Time between consecutive frames in input trajectory (dt): 5 fs
INFO: Time between consecutive frames used (dt * frame_step): 5 fs
INFO: Time window size (dt * frame_step * window_size): 20000.0 fs
INFO: Angular frequency resolution: dw = 0.000314 2pi/fs = 0.207 meV
INFO: Maximum angular frequency (dw * window_size): 1.256637 2pi/fs = 827.133 meV
INFO: Nyquist angular frequency (2pi / frame_step / dt / 2): 0.628 2pi/fs = 413.6 meV
INFO: Calculating current (velocity) correlations
INFO: Number of q-points: 150
DEBUG: Considering pairs:
DEBUG:   ('X', 'X')
DEBUG: processing window 0 to 4000
DEBUG: processing window 5 to 4005
DEBUG: processing window 10 to 4010
DEBUG: processing window 15 to 4015
DEBUG: processing window 20 to 4020
DEBUG: processing window 25 to 4025
DEBUG: processing window 30 to 4030
DEBUG: processing window 35 to 4035
DEBUG: processing window 40 to 4040
DEBUG: processing window 45 to 4045
DEBUG: processing window 50 to 4050
DEBUG: processing window 55 to 4055
DEBUG: processing window 60 to 4060
DEBUG: processing window 65 to 4065
DEBUG: processing window 70 to 4070
DEBUG: processing window 75 to 4075
DEBUG: processing window 80 to 4080
DEBUG: processing window 85 to 4085
DEBUG: processing window 90 to 4090
DEBUG: processing window 95 to 4095
DEBUG: processing window 100 to 4100
DEBUG: processing window 105 to 4105
DEBUG: processing window 110 to 4110
DEBUG: processing window 115 to 4115
DEBUG: processing window 120 to 4120
DEBUG: processing window 125 to 4125
DEBUG: processing window 130 to 4130
DEBUG: processing window 135 to 4135
DEBUG: processing window 140 to 4140
DEBUG: processing window 145 to 4145
DEBUG: processing window 150 to 4150
DEBUG: processing window 155 to 4155
DEBUG: processing window 160 to 4160
DEBUG: processing window 165 to 4165
DEBUG: processing window 170 to 4170
DEBUG: processing window 175 to 4175
DEBUG: processing window 180 to 4180
DEBUG: processing window 185 to 4185
DEBUG: processing window 190 to 4190
DEBUG: processing window 195 to 4195
DEBUG: processing window 200 to 4200
DEBUG: processing window 205 to 4205
DEBUG: processing window 210 to 4210
DEBUG: processing window 215 to 4215
DEBUG: processing window 220 to 4220
DEBUG: processing window 225 to 4225
DEBUG: processing window 230 to 4230
DEBUG: processing window 235 to 4235
DEBUG: processing window 240 to 4240
DEBUG: processing window 245 to 4245
DEBUG: processing window 250 to 4250
DEBUG: processing window 255 to 4255
DEBUG: processing window 260 to 4260
DEBUG: processing window 265 to 4265
DEBUG: processing window 270 to 4270
DEBUG: processing window 275 to 4275
DEBUG: processing window 280 to 4280
DEBUG: processing window 285 to 4285
DEBUG: processing window 290 to 4290
DEBUG: processing window 295 to 4295
DEBUG: processing window 300 to 4300
DEBUG: processing window 305 to 4305
DEBUG: processing window 310 to 4310
DEBUG: processing window 315 to 4315
DEBUG: processing window 320 to 4320
DEBUG: processing window 325 to 4325
DEBUG: processing window 330 to 4330
DEBUG: processing window 335 to 4335
DEBUG: processing window 340 to 4340
DEBUG: processing window 345 to 4345
DEBUG: processing window 350 to 4350
DEBUG: processing window 355 to 4355
DEBUG: processing window 360 to 4360
DEBUG: processing window 365 to 4365
DEBUG: processing window 370 to 4370
DEBUG: processing window 375 to 4375
DEBUG: processing window 380 to 4380
DEBUG: processing window 385 to 4385
DEBUG: processing window 390 to 4390
DEBUG: processing window 395 to 4395
DEBUG: processing window 400 to 4400
DEBUG: processing window 405 to 4405
DEBUG: processing window 410 to 4410
DEBUG: processing window 415 to 4415
DEBUG: processing window 420 to 4420
DEBUG: processing window 425 to 4425
DEBUG: processing window 430 to 4430
DEBUG: processing window 435 to 4435
DEBUG: processing window 440 to 4440
DEBUG: processing window 445 to 4445
DEBUG: processing window 450 to 4450
DEBUG: processing window 455 to 4455
DEBUG: processing window 460 to 4460
DEBUG: processing window 465 to 4465
DEBUG: processing window 470 to 4470
DEBUG: processing window 475 to 4475
DEBUG: processing window 480 to 4480
DEBUG: processing window 485 to 4485
DEBUG: processing window 490 to 4490
DEBUG: processing window 495 to 4495
DEBUG: processing window 500 to 4500
DEBUG: processing window 505 to 4505
DEBUG: processing window 510 to 4510
DEBUG: processing window 515 to 4515
DEBUG: processing window 520 to 4520
DEBUG: processing window 525 to 4525
DEBUG: processing window 530 to 4530
DEBUG: processing window 535 to 4535
DEBUG: processing window 540 to 4540
DEBUG: processing window 545 to 4545
DEBUG: processing window 550 to 4550
DEBUG: processing window 555 to 4555
DEBUG: processing window 560 to 4560
DEBUG: processing window 565 to 4565
DEBUG: processing window 570 to 4570
DEBUG: processing window 575 to 4575
DEBUG: processing window 580 to 4580
DEBUG: processing window 585 to 4585
DEBUG: processing window 590 to 4590
DEBUG: processing window 595 to 4595
DEBUG: processing window 600 to 4600
DEBUG: processing window 605 to 4605
DEBUG: processing window 610 to 4610
DEBUG: processing window 615 to 4615
DEBUG: processing window 620 to 4620
DEBUG: processing window 625 to 4625
DEBUG: processing window 630 to 4630
DEBUG: processing window 635 to 4635
DEBUG: processing window 640 to 4640
DEBUG: processing window 645 to 4645
DEBUG: processing window 650 to 4650
DEBUG: processing window 655 to 4655
DEBUG: processing window 660 to 4660
DEBUG: processing window 665 to 4665
DEBUG: processing window 670 to 4670
DEBUG: processing window 675 to 4675
DEBUG: processing window 680 to 4680
DEBUG: processing window 685 to 4685
DEBUG: processing window 690 to 4690
DEBUG: processing window 695 to 4695
DEBUG: processing window 700 to 4700
DEBUG: processing window 705 to 4705
DEBUG: processing window 710 to 4710
DEBUG: processing window 715 to 4715
DEBUG: processing window 720 to 4720
DEBUG: processing window 725 to 4725
DEBUG: processing window 730 to 4730
DEBUG: processing window 735 to 4735
DEBUG: processing window 740 to 4740
DEBUG: processing window 745 to 4745
DEBUG: processing window 750 to 4750
DEBUG: processing window 755 to 4755
DEBUG: processing window 760 to 4760
DEBUG: processing window 765 to 4765
DEBUG: processing window 770 to 4770
DEBUG: processing window 775 to 4775
DEBUG: processing window 780 to 4780
DEBUG: processing window 785 to 4785
DEBUG: processing window 790 to 4790
DEBUG: processing window 795 to 4795
DEBUG: processing window 800 to 4800
DEBUG: processing window 805 to 4805
DEBUG: processing window 810 to 4810
DEBUG: processing window 815 to 4815
DEBUG: processing window 820 to 4820
DEBUG: processing window 825 to 4825
DEBUG: processing window 830 to 4830
DEBUG: processing window 835 to 4835
DEBUG: processing window 840 to 4840
DEBUG: processing window 845 to 4845
DEBUG: processing window 850 to 4850
DEBUG: processing window 855 to 4855
DEBUG: processing window 860 to 4860
DEBUG: processing window 865 to 4865
DEBUG: processing window 870 to 4870
DEBUG: processing window 875 to 4875
DEBUG: processing window 880 to 4880
DEBUG: processing window 885 to 4885
DEBUG: processing window 890 to 4890
DEBUG: processing window 895 to 4895
DEBUG: processing window 900 to 4900
DEBUG: processing window 905 to 4905
DEBUG: processing window 910 to 4910
DEBUG: processing window 915 to 4915
DEBUG: processing window 920 to 4920
DEBUG: processing window 925 to 4925
DEBUG: processing window 930 to 4930
DEBUG: processing window 935 to 4935
DEBUG: processing window 940 to 4940
DEBUG: processing window 945 to 4945
DEBUG: processing window 950 to 4950
DEBUG: processing window 955 to 4955
DEBUG: processing window 960 to 4960
DEBUG: processing window 965 to 4965
DEBUG: processing window 970 to 4970
DEBUG: processing window 975 to 4975
DEBUG: processing window 980 to 4980
DEBUG: processing window 985 to 4985
DEBUG: processing window 990 to 4990
DEBUG: processing window 995 to 4995
DEBUG: processing window 1000 to 5000
DEBUG: processing window 1005 to 5005
DEBUG: processing window 1010 to 5010
DEBUG: processing window 1015 to 5015
DEBUG: processing window 1020 to 5020
DEBUG: processing window 1025 to 5025
DEBUG: processing window 1030 to 5030
DEBUG: processing window 1035 to 5035
DEBUG: processing window 1040 to 5040
DEBUG: processing window 1045 to 5045
DEBUG: processing window 1050 to 5050
DEBUG: processing window 1055 to 5055
DEBUG: processing window 1060 to 5060
DEBUG: processing window 1065 to 5065
DEBUG: processing window 1070 to 5070
DEBUG: processing window 1075 to 5075
DEBUG: processing window 1080 to 5080
DEBUG: processing window 1085 to 5085
DEBUG: processing window 1090 to 5090
DEBUG: processing window 1095 to 5095
DEBUG: processing window 1100 to 5100
DEBUG: processing window 1105 to 5105
DEBUG: processing window 1110 to 5110
DEBUG: processing window 1115 to 5115
DEBUG: processing window 1120 to 5120
DEBUG: processing window 1125 to 5125
DEBUG: processing window 1130 to 5130
DEBUG: processing window 1135 to 5135
DEBUG: processing window 1140 to 5140
DEBUG: processing window 1145 to 5145
DEBUG: processing window 1150 to 5150
DEBUG: processing window 1155 to 5155
DEBUG: processing window 1160 to 5160
DEBUG: processing window 1165 to 5165
DEBUG: processing window 1170 to 5170
DEBUG: processing window 1175 to 5175
DEBUG: processing window 1180 to 5180
DEBUG: processing window 1185 to 5185
DEBUG: processing window 1190 to 5190
DEBUG: processing window 1195 to 5195
DEBUG: processing window 1200 to 5200
DEBUG: processing window 1205 to 5205
DEBUG: processing window 1210 to 5210
DEBUG: processing window 1215 to 5215
DEBUG: processing window 1220 to 5220
DEBUG: processing window 1225 to 5225
DEBUG: processing window 1230 to 5230
DEBUG: processing window 1235 to 5235
DEBUG: processing window 1240 to 5240
DEBUG: processing window 1245 to 5245
DEBUG: processing window 1250 to 5250
DEBUG: processing window 1255 to 5255
DEBUG: processing window 1260 to 5260
DEBUG: processing window 1265 to 5265
DEBUG: processing window 1270 to 5270
DEBUG: processing window 1275 to 5275
DEBUG: processing window 1280 to 5280
DEBUG: processing window 1285 to 5285
DEBUG: processing window 1290 to 5290
DEBUG: processing window 1295 to 5295
DEBUG: processing window 1300 to 5300
DEBUG: processing window 1305 to 5305
DEBUG: processing window 1310 to 5310
DEBUG: processing window 1315 to 5315
DEBUG: processing window 1320 to 5320
DEBUG: processing window 1325 to 5325
DEBUG: processing window 1330 to 5330
DEBUG: processing window 1335 to 5335
DEBUG: processing window 1340 to 5340
DEBUG: processing window 1345 to 5345
DEBUG: processing window 1350 to 5350
DEBUG: processing window 1355 to 5355
DEBUG: processing window 1360 to 5360
DEBUG: processing window 1365 to 5365
DEBUG: processing window 1370 to 5370
DEBUG: processing window 1375 to 5375
DEBUG: processing window 1380 to 5380
DEBUG: processing window 1385 to 5385
DEBUG: processing window 1390 to 5390
DEBUG: processing window 1395 to 5395
DEBUG: processing window 1400 to 5400
DEBUG: processing window 1405 to 5405
DEBUG: processing window 1410 to 5410
DEBUG: processing window 1415 to 5415
DEBUG: processing window 1420 to 5420
DEBUG: processing window 1425 to 5425
DEBUG: processing window 1430 to 5430
DEBUG: processing window 1435 to 5435
DEBUG: processing window 1440 to 5440
DEBUG: processing window 1445 to 5445
DEBUG: processing window 1450 to 5450
DEBUG: processing window 1455 to 5455
DEBUG: processing window 1460 to 5460
DEBUG: processing window 1465 to 5465
DEBUG: processing window 1470 to 5470
DEBUG: processing window 1475 to 5475
DEBUG: processing window 1480 to 5480
DEBUG: processing window 1485 to 5485
DEBUG: processing window 1490 to 5490
DEBUG: processing window 1495 to 5495
DEBUG: processing window 1500 to 5500
DEBUG: processing window 1505 to 5505
DEBUG: processing window 1510 to 5510
DEBUG: processing window 1515 to 5515
DEBUG: processing window 1520 to 5520
DEBUG: processing window 1525 to 5525
DEBUG: processing window 1530 to 5530
DEBUG: processing window 1535 to 5535
DEBUG: processing window 1540 to 5540
DEBUG: processing window 1545 to 5545
DEBUG: processing window 1550 to 5550
DEBUG: processing window 1555 to 5555
DEBUG: processing window 1560 to 5560
DEBUG: processing window 1565 to 5565
DEBUG: processing window 1570 to 5570
DEBUG: processing window 1575 to 5575
DEBUG: processing window 1580 to 5580
DEBUG: processing window 1585 to 5585
DEBUG: processing window 1590 to 5590
DEBUG: processing window 1595 to 5595
DEBUG: processing window 1600 to 5600
DEBUG: processing window 1605 to 5605
DEBUG: processing window 1610 to 5610
DEBUG: processing window 1615 to 5615
DEBUG: processing window 1620 to 5620
DEBUG: processing window 1625 to 5625
DEBUG: processing window 1630 to 5630
DEBUG: processing window 1635 to 5635
DEBUG: processing window 1640 to 5640
DEBUG: processing window 1645 to 5645
DEBUG: processing window 1650 to 5650
DEBUG: processing window 1655 to 5655
DEBUG: processing window 1660 to 5660
DEBUG: processing window 1665 to 5665
DEBUG: processing window 1670 to 5670
DEBUG: processing window 1675 to 5675
DEBUG: processing window 1680 to 5680
DEBUG: processing window 1685 to 5685
DEBUG: processing window 1690 to 5690
DEBUG: processing window 1695 to 5695
DEBUG: processing window 1700 to 5700
DEBUG: processing window 1705 to 5705
DEBUG: processing window 1710 to 5710
DEBUG: processing window 1715 to 5715
DEBUG: processing window 1720 to 5720
DEBUG: processing window 1725 to 5725
DEBUG: processing window 1730 to 5730
DEBUG: processing window 1735 to 5735
DEBUG: processing window 1740 to 5740
DEBUG: processing window 1745 to 5745
DEBUG: processing window 1750 to 5750
DEBUG: processing window 1755 to 5755
DEBUG: processing window 1760 to 5760
DEBUG: processing window 1765 to 5765
DEBUG: processing window 1770 to 5770
DEBUG: processing window 1775 to 5775
DEBUG: processing window 1780 to 5780
DEBUG: processing window 1785 to 5785
DEBUG: processing window 1790 to 5790
DEBUG: processing window 1795 to 5795
DEBUG: processing window 1800 to 5800
DEBUG: processing window 1805 to 5805
DEBUG: processing window 1810 to 5810
DEBUG: processing window 1815 to 5815
DEBUG: processing window 1820 to 5820
DEBUG: processing window 1825 to 5825
DEBUG: processing window 1830 to 5830
DEBUG: processing window 1835 to 5835
DEBUG: processing window 1840 to 5840
DEBUG: processing window 1845 to 5845
DEBUG: processing window 1850 to 5850
DEBUG: processing window 1855 to 5855
DEBUG: processing window 1860 to 5860
DEBUG: processing window 1865 to 5865
DEBUG: processing window 1870 to 5870
DEBUG: processing window 1875 to 5875
DEBUG: processing window 1880 to 5880
DEBUG: processing window 1885 to 5885
DEBUG: processing window 1890 to 5890
DEBUG: processing window 1895 to 5895
DEBUG: processing window 1900 to 5900
DEBUG: processing window 1905 to 5905
DEBUG: processing window 1910 to 5910
DEBUG: processing window 1915 to 5915
DEBUG: processing window 1920 to 5920
DEBUG: processing window 1925 to 5925
DEBUG: processing window 1930 to 5930
DEBUG: processing window 1935 to 5935
DEBUG: processing window 1940 to 5940
DEBUG: processing window 1945 to 5945
DEBUG: processing window 1950 to 5950
DEBUG: processing window 1955 to 5955
DEBUG: processing window 1960 to 5960
DEBUG: processing window 1965 to 5965
DEBUG: processing window 1970 to 5970
DEBUG: processing window 1975 to 5975
DEBUG: processing window 1980 to 5980
DEBUG: processing window 1985 to 5985
DEBUG: processing window 1990 to 5990
DEBUG: processing window 1995 to 5995
DEBUG: processing window 2000 to 6000
DEBUG: processing window 2005 to 6005
DEBUG: processing window 2010 to 6010
DEBUG: processing window 2015 to 6015
DEBUG: processing window 2020 to 6020
DEBUG: processing window 2025 to 6025
DEBUG: processing window 2030 to 6030
DEBUG: processing window 2035 to 6035
DEBUG: processing window 2040 to 6040
DEBUG: processing window 2045 to 6045
DEBUG: processing window 2050 to 6050
DEBUG: processing window 2055 to 6055
DEBUG: processing window 2060 to 6060
DEBUG: processing window 2065 to 6065
DEBUG: processing window 2070 to 6070
DEBUG: processing window 2075 to 6075
DEBUG: processing window 2080 to 6080
DEBUG: processing window 2085 to 6085
DEBUG: processing window 2090 to 6090
DEBUG: processing window 2095 to 6095
DEBUG: processing window 2100 to 6100
DEBUG: processing window 2105 to 6105
DEBUG: processing window 2110 to 6110
DEBUG: processing window 2115 to 6115
DEBUG: processing window 2120 to 6120
DEBUG: processing window 2125 to 6125
DEBUG: processing window 2130 to 6130
DEBUG: processing window 2135 to 6135
DEBUG: processing window 2140 to 6140
DEBUG: processing window 2145 to 6145
DEBUG: processing window 2150 to 6150
DEBUG: processing window 2155 to 6155
DEBUG: processing window 2160 to 6160
DEBUG: processing window 2165 to 6165
DEBUG: processing window 2170 to 6170
DEBUG: processing window 2175 to 6175
DEBUG: processing window 2180 to 6180
DEBUG: processing window 2185 to 6185
DEBUG: processing window 2190 to 6190
DEBUG: processing window 2195 to 6195
DEBUG: processing window 2200 to 6200
DEBUG: processing window 2205 to 6205
DEBUG: processing window 2210 to 6210
DEBUG: processing window 2215 to 6215
DEBUG: processing window 2220 to 6220
DEBUG: processing window 2225 to 6225
DEBUG: processing window 2230 to 6230
DEBUG: processing window 2235 to 6235
DEBUG: processing window 2240 to 6240
DEBUG: processing window 2245 to 6245
DEBUG: processing window 2250 to 6250
DEBUG: processing window 2255 to 6255
DEBUG: processing window 2260 to 6260
DEBUG: processing window 2265 to 6265
DEBUG: processing window 2270 to 6270
DEBUG: processing window 2275 to 6275
DEBUG: processing window 2280 to 6280
DEBUG: processing window 2285 to 6285
DEBUG: processing window 2290 to 6290
DEBUG: processing window 2295 to 6295
DEBUG: processing window 2300 to 6300
DEBUG: processing window 2305 to 6305
DEBUG: processing window 2310 to 6310
DEBUG: processing window 2315 to 6315
DEBUG: processing window 2320 to 6320
DEBUG: processing window 2325 to 6325
DEBUG: processing window 2330 to 6330
DEBUG: processing window 2335 to 6335
DEBUG: processing window 2340 to 6340
DEBUG: processing window 2345 to 6345
DEBUG: processing window 2350 to 6350
DEBUG: processing window 2355 to 6355
DEBUG: processing window 2360 to 6360
DEBUG: processing window 2365 to 6365
DEBUG: processing window 2370 to 6370
DEBUG: processing window 2375 to 6375
DEBUG: processing window 2380 to 6380
DEBUG: processing window 2385 to 6385
DEBUG: processing window 2390 to 6390
DEBUG: processing window 2395 to 6395
DEBUG: processing window 2400 to 6400
DEBUG: processing window 2405 to 6405
DEBUG: processing window 2410 to 6410
DEBUG: processing window 2415 to 6415
DEBUG: processing window 2420 to 6420
DEBUG: processing window 2425 to 6425
DEBUG: processing window 2430 to 6430
DEBUG: processing window 2435 to 6435
DEBUG: processing window 2440 to 6440
DEBUG: processing window 2445 to 6445
DEBUG: processing window 2450 to 6450
DEBUG: processing window 2455 to 6455
DEBUG: processing window 2460 to 6460
DEBUG: processing window 2465 to 6465
DEBUG: processing window 2470 to 6470
DEBUG: processing window 2475 to 6475
DEBUG: processing window 2480 to 6480
DEBUG: processing window 2485 to 6485
DEBUG: processing window 2490 to 6490
DEBUG: processing window 2495 to 6495
DEBUG: processing window 2500 to 6500
DEBUG: processing window 2505 to 6505
DEBUG: processing window 2510 to 6510
DEBUG: processing window 2515 to 6515
DEBUG: processing window 2520 to 6520
DEBUG: processing window 2525 to 6525
DEBUG: processing window 2530 to 6530
DEBUG: processing window 2535 to 6535
DEBUG: processing window 2540 to 6540
DEBUG: processing window 2545 to 6545
DEBUG: processing window 2550 to 6550
DEBUG: processing window 2555 to 6555
DEBUG: processing window 2560 to 6560
DEBUG: processing window 2565 to 6565
DEBUG: processing window 2570 to 6570
DEBUG: processing window 2575 to 6575
DEBUG: processing window 2580 to 6580
DEBUG: processing window 2585 to 6585
DEBUG: processing window 2590 to 6590
DEBUG: processing window 2595 to 6595
DEBUG: processing window 2600 to 6600
DEBUG: processing window 2605 to 6605
DEBUG: processing window 2610 to 6610
DEBUG: processing window 2615 to 6615
DEBUG: processing window 2620 to 6620
DEBUG: processing window 2625 to 6625
DEBUG: processing window 2630 to 6630
DEBUG: processing window 2635 to 6635
DEBUG: processing window 2640 to 6640
DEBUG: processing window 2645 to 6645
DEBUG: processing window 2650 to 6650
DEBUG: processing window 2655 to 6655
DEBUG: processing window 2660 to 6660
DEBUG: processing window 2665 to 6665
DEBUG: processing window 2670 to 6670
DEBUG: processing window 2675 to 6675
DEBUG: processing window 2680 to 6680
DEBUG: processing window 2685 to 6685
DEBUG: processing window 2690 to 6690
DEBUG: processing window 2695 to 6695
DEBUG: processing window 2700 to 6700
DEBUG: processing window 2705 to 6705
DEBUG: processing window 2710 to 6710
DEBUG: processing window 2715 to 6715
DEBUG: processing window 2720 to 6720
DEBUG: processing window 2725 to 6725
DEBUG: processing window 2730 to 6730
DEBUG: processing window 2735 to 6735
DEBUG: processing window 2740 to 6740
DEBUG: processing window 2745 to 6745
DEBUG: processing window 2750 to 6750
DEBUG: processing window 2755 to 6755
DEBUG: processing window 2760 to 6760
DEBUG: processing window 2765 to 6765
DEBUG: processing window 2770 to 6770
DEBUG: processing window 2775 to 6775
DEBUG: processing window 2780 to 6780
DEBUG: processing window 2785 to 6785
DEBUG: processing window 2790 to 6790
DEBUG: processing window 2795 to 6795
DEBUG: processing window 2800 to 6800
DEBUG: processing window 2805 to 6805
DEBUG: processing window 2810 to 6810
DEBUG: processing window 2815 to 6815
DEBUG: processing window 2820 to 6820
DEBUG: processing window 2825 to 6825
DEBUG: processing window 2830 to 6830
DEBUG: processing window 2835 to 6835
DEBUG: processing window 2840 to 6840
DEBUG: processing window 2845 to 6845
DEBUG: processing window 2850 to 6850
DEBUG: processing window 2855 to 6855
DEBUG: processing window 2860 to 6860
DEBUG: processing window 2865 to 6865
DEBUG: processing window 2870 to 6870
DEBUG: processing window 2875 to 6875
DEBUG: processing window 2880 to 6880
DEBUG: processing window 2885 to 6885
DEBUG: processing window 2890 to 6890
DEBUG: processing window 2895 to 6895
DEBUG: processing window 2900 to 6900
DEBUG: processing window 2905 to 6905
DEBUG: processing window 2910 to 6910
DEBUG: processing window 2915 to 6915
DEBUG: processing window 2920 to 6920
DEBUG: processing window 2925 to 6925
DEBUG: processing window 2930 to 6930
DEBUG: processing window 2935 to 6935
DEBUG: processing window 2940 to 6940
DEBUG: processing window 2945 to 6945
DEBUG: processing window 2950 to 6950
DEBUG: processing window 2955 to 6955
DEBUG: processing window 2960 to 6960
DEBUG: processing window 2965 to 6965
DEBUG: processing window 2970 to 6970
DEBUG: processing window 2975 to 6975
DEBUG: processing window 2980 to 6980
DEBUG: processing window 2985 to 6985
DEBUG: processing window 2990 to 6990
DEBUG: processing window 2995 to 6995
DEBUG: processing window 3000 to 7000
DEBUG: processing window 3005 to 7005
DEBUG: processing window 3010 to 7010
DEBUG: processing window 3015 to 7015
DEBUG: processing window 3020 to 7020
DEBUG: processing window 3025 to 7025
DEBUG: processing window 3030 to 7030
DEBUG: processing window 3035 to 7035
DEBUG: processing window 3040 to 7040
DEBUG: processing window 3045 to 7045
DEBUG: processing window 3050 to 7050
DEBUG: processing window 3055 to 7055
DEBUG: processing window 3060 to 7060
DEBUG: processing window 3065 to 7065
DEBUG: processing window 3070 to 7070
DEBUG: processing window 3075 to 7075
DEBUG: processing window 3080 to 7080
DEBUG: processing window 3085 to 7085
DEBUG: processing window 3090 to 7090
DEBUG: processing window 3095 to 7095
DEBUG: processing window 3100 to 7100
DEBUG: processing window 3105 to 7105
DEBUG: processing window 3110 to 7110
DEBUG: processing window 3115 to 7115
DEBUG: processing window 3120 to 7120
DEBUG: processing window 3125 to 7125
DEBUG: processing window 3130 to 7130
DEBUG: processing window 3135 to 7135
DEBUG: processing window 3140 to 7140
DEBUG: processing window 3145 to 7145
DEBUG: processing window 3150 to 7150
DEBUG: processing window 3155 to 7155
DEBUG: processing window 3160 to 7160
DEBUG: processing window 3165 to 7165
DEBUG: processing window 3170 to 7170
DEBUG: processing window 3175 to 7175
DEBUG: processing window 3180 to 7180
DEBUG: processing window 3185 to 7185
DEBUG: processing window 3190 to 7190
DEBUG: processing window 3195 to 7195
DEBUG: processing window 3200 to 7200
DEBUG: processing window 3205 to 7205
DEBUG: processing window 3210 to 7210
DEBUG: processing window 3215 to 7215
DEBUG: processing window 3220 to 7220
DEBUG: processing window 3225 to 7225
DEBUG: processing window 3230 to 7230
DEBUG: processing window 3235 to 7235
DEBUG: processing window 3240 to 7240
DEBUG: processing window 3245 to 7245
DEBUG: processing window 3250 to 7250
DEBUG: processing window 3255 to 7255
DEBUG: processing window 3260 to 7260
DEBUG: processing window 3265 to 7265
DEBUG: processing window 3270 to 7270
DEBUG: processing window 3275 to 7275
DEBUG: processing window 3280 to 7280
DEBUG: processing window 3285 to 7285
DEBUG: processing window 3290 to 7290
DEBUG: processing window 3295 to 7295
DEBUG: processing window 3300 to 7300
DEBUG: processing window 3305 to 7305
DEBUG: processing window 3310 to 7310
DEBUG: processing window 3315 to 7315
DEBUG: processing window 3320 to 7320
DEBUG: processing window 3325 to 7325
DEBUG: processing window 3330 to 7330
DEBUG: processing window 3335 to 7335
DEBUG: processing window 3340 to 7340
DEBUG: processing window 3345 to 7345
DEBUG: processing window 3350 to 7350
DEBUG: processing window 3355 to 7355
DEBUG: processing window 3360 to 7360
DEBUG: processing window 3365 to 7365
DEBUG: processing window 3370 to 7370
DEBUG: processing window 3375 to 7375
DEBUG: processing window 3380 to 7380
DEBUG: processing window 3385 to 7385
DEBUG: processing window 3390 to 7390
DEBUG: processing window 3395 to 7395
DEBUG: processing window 3400 to 7400
DEBUG: processing window 3405 to 7405
DEBUG: processing window 3410 to 7410
DEBUG: processing window 3415 to 7415
DEBUG: processing window 3420 to 7420
DEBUG: processing window 3425 to 7425
DEBUG: processing window 3430 to 7430
DEBUG: processing window 3435 to 7435
DEBUG: processing window 3440 to 7440
DEBUG: processing window 3445 to 7445
DEBUG: processing window 3450 to 7450
DEBUG: processing window 3455 to 7455
DEBUG: processing window 3460 to 7460
DEBUG: processing window 3465 to 7465
DEBUG: processing window 3470 to 7470
DEBUG: processing window 3475 to 7475
DEBUG: processing window 3480 to 7480
DEBUG: processing window 3485 to 7485
DEBUG: processing window 3490 to 7490
DEBUG: processing window 3495 to 7495
DEBUG: processing window 3500 to 7500
DEBUG: processing window 3505 to 7505
DEBUG: processing window 3510 to 7510
DEBUG: processing window 3515 to 7515
DEBUG: processing window 3520 to 7520
DEBUG: processing window 3525 to 7525
DEBUG: processing window 3530 to 7530
DEBUG: processing window 3535 to 7535
DEBUG: processing window 3540 to 7540
DEBUG: processing window 3545 to 7545
DEBUG: processing window 3550 to 7550
DEBUG: processing window 3555 to 7555
DEBUG: processing window 3560 to 7560
DEBUG: processing window 3565 to 7565
DEBUG: processing window 3570 to 7570
DEBUG: processing window 3575 to 7575
DEBUG: processing window 3580 to 7580
DEBUG: processing window 3585 to 7585
DEBUG: processing window 3590 to 7590
DEBUG: processing window 3595 to 7595
DEBUG: processing window 3600 to 7600
DEBUG: processing window 3605 to 7605
DEBUG: processing window 3610 to 7610
DEBUG: processing window 3615 to 7615
DEBUG: processing window 3620 to 7620
DEBUG: processing window 3625 to 7625
DEBUG: processing window 3630 to 7630
DEBUG: processing window 3635 to 7635
DEBUG: processing window 3640 to 7640
DEBUG: processing window 3645 to 7645
DEBUG: processing window 3650 to 7650
DEBUG: processing window 3655 to 7655
DEBUG: processing window 3660 to 7660
DEBUG: processing window 3665 to 7665
DEBUG: processing window 3670 to 7670
DEBUG: processing window 3675 to 7675
DEBUG: processing window 3680 to 7680
DEBUG: processing window 3685 to 7685
DEBUG: processing window 3690 to 7690
DEBUG: processing window 3695 to 7695
DEBUG: processing window 3700 to 7700
DEBUG: processing window 3705 to 7705
DEBUG: processing window 3710 to 7710
DEBUG: processing window 3715 to 7715
DEBUG: processing window 3720 to 7720
DEBUG: processing window 3725 to 7725
DEBUG: processing window 3730 to 7730
DEBUG: processing window 3735 to 7735
DEBUG: processing window 3740 to 7740
DEBUG: processing window 3745 to 7745
DEBUG: processing window 3750 to 7750
DEBUG: processing window 3755 to 7755
DEBUG: processing window 3760 to 7760
DEBUG: processing window 3765 to 7765
DEBUG: processing window 3770 to 7770
DEBUG: processing window 3775 to 7775
DEBUG: processing window 3780 to 7780
DEBUG: processing window 3785 to 7785
DEBUG: processing window 3790 to 7790
DEBUG: processing window 3795 to 7795
DEBUG: processing window 3800 to 7800
DEBUG: processing window 3805 to 7805
DEBUG: processing window 3810 to 7810
DEBUG: processing window 3815 to 7815
DEBUG: processing window 3820 to 7820
DEBUG: processing window 3825 to 7825
DEBUG: processing window 3830 to 7830
DEBUG: processing window 3835 to 7835
DEBUG: processing window 3840 to 7840
DEBUG: processing window 3845 to 7845
DEBUG: processing window 3850 to 7850
DEBUG: processing window 3855 to 7855
DEBUG: processing window 3860 to 7860
DEBUG: processing window 3865 to 7865
DEBUG: processing window 3870 to 7870
DEBUG: processing window 3875 to 7875
DEBUG: processing window 3880 to 7880
DEBUG: processing window 3885 to 7885
DEBUG: processing window 3890 to 7890
DEBUG: processing window 3895 to 7895
DEBUG: processing window 3900 to 7900
DEBUG: processing window 3905 to 7905
DEBUG: processing window 3910 to 7910
DEBUG: processing window 3915 to 7915
DEBUG: processing window 3920 to 7920
DEBUG: processing window 3925 to 7925
DEBUG: processing window 3930 to 7930
DEBUG: processing window 3935 to 7935
DEBUG: processing window 3940 to 7940
DEBUG: processing window 3945 to 7945
DEBUG: processing window 3950 to 7950
DEBUG: processing window 3955 to 7955
DEBUG: processing window 3960 to 7960
DEBUG: processing window 3965 to 7965
DEBUG: processing window 3970 to 7970
DEBUG: processing window 3975 to 7975
DEBUG: processing window 3980 to 7980
DEBUG: processing window 3985 to 7985
DEBUG: processing window 3990 to 7990
DEBUG: processing window 3995 to 7995
DEBUG: processing window 4000 to 8000
DEBUG: processing window 4005 to 8000
DEBUG: processing window 4010 to 8000
DEBUG: processing window 4015 to 8000
DEBUG: processing window 4020 to 8000
DEBUG: processing window 4025 to 8000
DEBUG: processing window 4030 to 8000
DEBUG: processing window 4035 to 8000
DEBUG: processing window 4040 to 8000
DEBUG: processing window 4045 to 8000
DEBUG: processing window 4050 to 8000
DEBUG: processing window 4055 to 8000
DEBUG: processing window 4060 to 8000
DEBUG: processing window 4065 to 8000
DEBUG: processing window 4070 to 8000
DEBUG: processing window 4075 to 8000
DEBUG: processing window 4080 to 8000
DEBUG: processing window 4085 to 8000
DEBUG: processing window 4090 to 8000
DEBUG: processing window 4095 to 8000
DEBUG: processing window 4100 to 8000
DEBUG: processing window 4105 to 8000
DEBUG: processing window 4110 to 8000
DEBUG: processing window 4115 to 8000
DEBUG: processing window 4120 to 8000
DEBUG: processing window 4125 to 8000
DEBUG: processing window 4130 to 8000
DEBUG: processing window 4135 to 8000
DEBUG: processing window 4140 to 8000
DEBUG: processing window 4145 to 8000
DEBUG: processing window 4150 to 8000
DEBUG: processing window 4155 to 8000
DEBUG: processing window 4160 to 8000
DEBUG: processing window 4165 to 8000
DEBUG: processing window 4170 to 8000
DEBUG: processing window 4175 to 8000
DEBUG: processing window 4180 to 8000
DEBUG: processing window 4185 to 8000
DEBUG: processing window 4190 to 8000
DEBUG: processing window 4195 to 8000
DEBUG: processing window 4200 to 8000
DEBUG: processing window 4205 to 8000
DEBUG: processing window 4210 to 8000
DEBUG: processing window 4215 to 8000
DEBUG: processing window 4220 to 8000
DEBUG: processing window 4225 to 8000
DEBUG: processing window 4230 to 8000
DEBUG: processing window 4235 to 8000
DEBUG: processing window 4240 to 8000
DEBUG: processing window 4245 to 8000
DEBUG: processing window 4250 to 8000
DEBUG: processing window 4255 to 8000
DEBUG: processing window 4260 to 8000
DEBUG: processing window 4265 to 8000
DEBUG: processing window 4270 to 8000
DEBUG: processing window 4275 to 8000
DEBUG: processing window 4280 to 8000
DEBUG: processing window 4285 to 8000
DEBUG: processing window 4290 to 8000
DEBUG: processing window 4295 to 8000
DEBUG: processing window 4300 to 8000
DEBUG: processing window 4305 to 8000
DEBUG: processing window 4310 to 8000
DEBUG: processing window 4315 to 8000
DEBUG: processing window 4320 to 8000
DEBUG: processing window 4325 to 8000
DEBUG: processing window 4330 to 8000
DEBUG: processing window 4335 to 8000
DEBUG: processing window 4340 to 8000
DEBUG: processing window 4345 to 8000
DEBUG: processing window 4350 to 8000
DEBUG: processing window 4355 to 8000
DEBUG: processing window 4360 to 8000
DEBUG: processing window 4365 to 8000
DEBUG: processing window 4370 to 8000
DEBUG: processing window 4375 to 8000
DEBUG: processing window 4380 to 8000
DEBUG: processing window 4385 to 8000
DEBUG: processing window 4390 to 8000
DEBUG: processing window 4395 to 8000
DEBUG: processing window 4400 to 8000
DEBUG: processing window 4405 to 8000
DEBUG: processing window 4410 to 8000
DEBUG: processing window 4415 to 8000
DEBUG: processing window 4420 to 8000
DEBUG: processing window 4425 to 8000
DEBUG: processing window 4430 to 8000
DEBUG: processing window 4435 to 8000
DEBUG: processing window 4440 to 8000
DEBUG: processing window 4445 to 8000
DEBUG: processing window 4450 to 8000
DEBUG: processing window 4455 to 8000
DEBUG: processing window 4460 to 8000
DEBUG: processing window 4465 to 8000
DEBUG: processing window 4470 to 8000
DEBUG: processing window 4475 to 8000
DEBUG: processing window 4480 to 8000
DEBUG: processing window 4485 to 8000
DEBUG: processing window 4490 to 8000
DEBUG: processing window 4495 to 8000
DEBUG: processing window 4500 to 8000
DEBUG: processing window 4505 to 8000
DEBUG: processing window 4510 to 8000
DEBUG: processing window 4515 to 8000
DEBUG: processing window 4520 to 8000
DEBUG: processing window 4525 to 8000
DEBUG: processing window 4530 to 8000
DEBUG: processing window 4535 to 8000
DEBUG: processing window 4540 to 8000
DEBUG: processing window 4545 to 8000
DEBUG: processing window 4550 to 8000
DEBUG: processing window 4555 to 8000
DEBUG: processing window 4560 to 8000
DEBUG: processing window 4565 to 8000
DEBUG: processing window 4570 to 8000
DEBUG: processing window 4575 to 8000
DEBUG: processing window 4580 to 8000
DEBUG: processing window 4585 to 8000
DEBUG: processing window 4590 to 8000
DEBUG: processing window 4595 to 8000
DEBUG: processing window 4600 to 8000
DEBUG: processing window 4605 to 8000
DEBUG: processing window 4610 to 8000
DEBUG: processing window 4615 to 8000
DEBUG: processing window 4620 to 8000
DEBUG: processing window 4625 to 8000
DEBUG: processing window 4630 to 8000
DEBUG: processing window 4635 to 8000
DEBUG: processing window 4640 to 8000
DEBUG: processing window 4645 to 8000
DEBUG: processing window 4650 to 8000
DEBUG: processing window 4655 to 8000
DEBUG: processing window 4660 to 8000
DEBUG: processing window 4665 to 8000
DEBUG: processing window 4670 to 8000
DEBUG: processing window 4675 to 8000
DEBUG: processing window 4680 to 8000
DEBUG: processing window 4685 to 8000
DEBUG: processing window 4690 to 8000
DEBUG: processing window 4695 to 8000
DEBUG: processing window 4700 to 8000
DEBUG: processing window 4705 to 8000
DEBUG: processing window 4710 to 8000
DEBUG: processing window 4715 to 8000
DEBUG: processing window 4720 to 8000
DEBUG: processing window 4725 to 8000
DEBUG: processing window 4730 to 8000
DEBUG: processing window 4735 to 8000
DEBUG: processing window 4740 to 8000
DEBUG: processing window 4745 to 8000
DEBUG: processing window 4750 to 8000
DEBUG: processing window 4755 to 8000
DEBUG: processing window 4760 to 8000
DEBUG: processing window 4765 to 8000
DEBUG: processing window 4770 to 8000
DEBUG: processing window 4775 to 8000
DEBUG: processing window 4780 to 8000
DEBUG: processing window 4785 to 8000
DEBUG: processing window 4790 to 8000
DEBUG: processing window 4795 to 8000
DEBUG: processing window 4800 to 8000
DEBUG: processing window 4805 to 8000
DEBUG: processing window 4810 to 8000
DEBUG: processing window 4815 to 8000
DEBUG: processing window 4820 to 8000
DEBUG: processing window 4825 to 8000
DEBUG: processing window 4830 to 8000
DEBUG: processing window 4835 to 8000
DEBUG: processing window 4840 to 8000
DEBUG: processing window 4845 to 8000
DEBUG: processing window 4850 to 8000
DEBUG: processing window 4855 to 8000
DEBUG: processing window 4860 to 8000
DEBUG: processing window 4865 to 8000
DEBUG: processing window 4870 to 8000
DEBUG: processing window 4875 to 8000
DEBUG: processing window 4880 to 8000
DEBUG: processing window 4885 to 8000
DEBUG: processing window 4890 to 8000
DEBUG: processing window 4895 to 8000
DEBUG: processing window 4900 to 8000
DEBUG: processing window 4905 to 8000
DEBUG: processing window 4910 to 8000
DEBUG: processing window 4915 to 8000
DEBUG: processing window 4920 to 8000
DEBUG: processing window 4925 to 8000
DEBUG: processing window 4930 to 8000
DEBUG: processing window 4935 to 8000
DEBUG: processing window 4940 to 8000
DEBUG: processing window 4945 to 8000
DEBUG: processing window 4950 to 8000
DEBUG: processing window 4955 to 8000
DEBUG: processing window 4960 to 8000
DEBUG: processing window 4965 to 8000
DEBUG: processing window 4970 to 8000
DEBUG: processing window 4975 to 8000
DEBUG: processing window 4980 to 8000
DEBUG: processing window 4985 to 8000
DEBUG: processing window 4990 to 8000
DEBUG: processing window 4995 to 8000
DEBUG: processing window 5000 to 8000
DEBUG: processing window 5005 to 8000
DEBUG: processing window 5010 to 8000
DEBUG: processing window 5015 to 8000
DEBUG: processing window 5020 to 8000
DEBUG: processing window 5025 to 8000
DEBUG: processing window 5030 to 8000
DEBUG: processing window 5035 to 8000
DEBUG: processing window 5040 to 8000
DEBUG: processing window 5045 to 8000
DEBUG: processing window 5050 to 8000
DEBUG: processing window 5055 to 8000
DEBUG: processing window 5060 to 8000
DEBUG: processing window 5065 to 8000
DEBUG: processing window 5070 to 8000
DEBUG: processing window 5075 to 8000
DEBUG: processing window 5080 to 8000
DEBUG: processing window 5085 to 8000
DEBUG: processing window 5090 to 8000
DEBUG: processing window 5095 to 8000
DEBUG: processing window 5100 to 8000
DEBUG: processing window 5105 to 8000
DEBUG: processing window 5110 to 8000
DEBUG: processing window 5115 to 8000
DEBUG: processing window 5120 to 8000
DEBUG: processing window 5125 to 8000
DEBUG: processing window 5130 to 8000
DEBUG: processing window 5135 to 8000
DEBUG: processing window 5140 to 8000
DEBUG: processing window 5145 to 8000
DEBUG: processing window 5150 to 8000
DEBUG: processing window 5155 to 8000
DEBUG: processing window 5160 to 8000
DEBUG: processing window 5165 to 8000
DEBUG: processing window 5170 to 8000
DEBUG: processing window 5175 to 8000
DEBUG: processing window 5180 to 8000
DEBUG: processing window 5185 to 8000
DEBUG: processing window 5190 to 8000
DEBUG: processing window 5195 to 8000
DEBUG: processing window 5200 to 8000
DEBUG: processing window 5205 to 8000
DEBUG: processing window 5210 to 8000
DEBUG: processing window 5215 to 8000
DEBUG: processing window 5220 to 8000
DEBUG: processing window 5225 to 8000
DEBUG: processing window 5230 to 8000
DEBUG: processing window 5235 to 8000
DEBUG: processing window 5240 to 8000
DEBUG: processing window 5245 to 8000
DEBUG: processing window 5250 to 8000
DEBUG: processing window 5255 to 8000
DEBUG: processing window 5260 to 8000
DEBUG: processing window 5265 to 8000
DEBUG: processing window 5270 to 8000
DEBUG: processing window 5275 to 8000
DEBUG: processing window 5280 to 8000
DEBUG: processing window 5285 to 8000
DEBUG: processing window 5290 to 8000
DEBUG: processing window 5295 to 8000
DEBUG: processing window 5300 to 8000
DEBUG: processing window 5305 to 8000
DEBUG: processing window 5310 to 8000
DEBUG: processing window 5315 to 8000
DEBUG: processing window 5320 to 8000
DEBUG: processing window 5325 to 8000
DEBUG: processing window 5330 to 8000
DEBUG: processing window 5335 to 8000
DEBUG: processing window 5340 to 8000
DEBUG: processing window 5345 to 8000
DEBUG: processing window 5350 to 8000
DEBUG: processing window 5355 to 8000
DEBUG: processing window 5360 to 8000
DEBUG: processing window 5365 to 8000
DEBUG: processing window 5370 to 8000
DEBUG: processing window 5375 to 8000
DEBUG: processing window 5380 to 8000
DEBUG: processing window 5385 to 8000
DEBUG: processing window 5390 to 8000
DEBUG: processing window 5395 to 8000
DEBUG: processing window 5400 to 8000
DEBUG: processing window 5405 to 8000
DEBUG: processing window 5410 to 8000
DEBUG: processing window 5415 to 8000
DEBUG: processing window 5420 to 8000
DEBUG: processing window 5425 to 8000
DEBUG: processing window 5430 to 8000
DEBUG: processing window 5435 to 8000
DEBUG: processing window 5440 to 8000
DEBUG: processing window 5445 to 8000
DEBUG: processing window 5450 to 8000
DEBUG: processing window 5455 to 8000
DEBUG: processing window 5460 to 8000
DEBUG: processing window 5465 to 8000
DEBUG: processing window 5470 to 8000
DEBUG: processing window 5475 to 8000
DEBUG: processing window 5480 to 8000
DEBUG: processing window 5485 to 8000
DEBUG: processing window 5490 to 8000
DEBUG: processing window 5495 to 8000
DEBUG: processing window 5500 to 8000
DEBUG: processing window 5505 to 8000
DEBUG: processing window 5510 to 8000
DEBUG: processing window 5515 to 8000
DEBUG: processing window 5520 to 8000
DEBUG: processing window 5525 to 8000
DEBUG: processing window 5530 to 8000
DEBUG: processing window 5535 to 8000
DEBUG: processing window 5540 to 8000
DEBUG: processing window 5545 to 8000
DEBUG: processing window 5550 to 8000
DEBUG: processing window 5555 to 8000
DEBUG: processing window 5560 to 8000
DEBUG: processing window 5565 to 8000
DEBUG: processing window 5570 to 8000
DEBUG: processing window 5575 to 8000
DEBUG: processing window 5580 to 8000
DEBUG: processing window 5585 to 8000
DEBUG: processing window 5590 to 8000
DEBUG: processing window 5595 to 8000
DEBUG: processing window 5600 to 8000
DEBUG: processing window 5605 to 8000
DEBUG: processing window 5610 to 8000
DEBUG: processing window 5615 to 8000
DEBUG: processing window 5620 to 8000
DEBUG: processing window 5625 to 8000
DEBUG: processing window 5630 to 8000
DEBUG: processing window 5635 to 8000
DEBUG: processing window 5640 to 8000
DEBUG: processing window 5645 to 8000
DEBUG: processing window 5650 to 8000
DEBUG: processing window 5655 to 8000
DEBUG: processing window 5660 to 8000
DEBUG: processing window 5665 to 8000
DEBUG: processing window 5670 to 8000
DEBUG: processing window 5675 to 8000
DEBUG: processing window 5680 to 8000
DEBUG: processing window 5685 to 8000
DEBUG: processing window 5690 to 8000
DEBUG: processing window 5695 to 8000
DEBUG: processing window 5700 to 8000
DEBUG: processing window 5705 to 8000
DEBUG: processing window 5710 to 8000
DEBUG: processing window 5715 to 8000
DEBUG: processing window 5720 to 8000
DEBUG: processing window 5725 to 8000
DEBUG: processing window 5730 to 8000
DEBUG: processing window 5735 to 8000
DEBUG: processing window 5740 to 8000
DEBUG: processing window 5745 to 8000
DEBUG: processing window 5750 to 8000
DEBUG: processing window 5755 to 8000
DEBUG: processing window 5760 to 8000
DEBUG: processing window 5765 to 8000
DEBUG: processing window 5770 to 8000
DEBUG: processing window 5775 to 8000
DEBUG: processing window 5780 to 8000
DEBUG: processing window 5785 to 8000
DEBUG: processing window 5790 to 8000
DEBUG: processing window 5795 to 8000
DEBUG: processing window 5800 to 8000
DEBUG: processing window 5805 to 8000
DEBUG: processing window 5810 to 8000
DEBUG: processing window 5815 to 8000
DEBUG: processing window 5820 to 8000
DEBUG: processing window 5825 to 8000
DEBUG: processing window 5830 to 8000
DEBUG: processing window 5835 to 8000
DEBUG: processing window 5840 to 8000
DEBUG: processing window 5845 to 8000
DEBUG: processing window 5850 to 8000
DEBUG: processing window 5855 to 8000
DEBUG: processing window 5860 to 8000
DEBUG: processing window 5865 to 8000
DEBUG: processing window 5870 to 8000
DEBUG: processing window 5875 to 8000
DEBUG: processing window 5880 to 8000
DEBUG: processing window 5885 to 8000
DEBUG: processing window 5890 to 8000
DEBUG: processing window 5895 to 8000
DEBUG: processing window 5900 to 8000
DEBUG: processing window 5905 to 8000
DEBUG: processing window 5910 to 8000
DEBUG: processing window 5915 to 8000
DEBUG: processing window 5920 to 8000
DEBUG: processing window 5925 to 8000
DEBUG: processing window 5930 to 8000
DEBUG: processing window 5935 to 8000
DEBUG: processing window 5940 to 8000
DEBUG: processing window 5945 to 8000
DEBUG: processing window 5950 to 8000
DEBUG: processing window 5955 to 8000
DEBUG: processing window 5960 to 8000
DEBUG: processing window 5965 to 8000
DEBUG: processing window 5970 to 8000
DEBUG: processing window 5975 to 8000
DEBUG: processing window 5980 to 8000
DEBUG: processing window 5985 to 8000
DEBUG: processing window 5990 to 8000
DEBUG: processing window 5995 to 8000
DEBUG: processing window 6000 to 8000
DEBUG: processing window 6005 to 8000
DEBUG: processing window 6010 to 8000
DEBUG: processing window 6015 to 8000
DEBUG: processing window 6020 to 8000
DEBUG: processing window 6025 to 8000
DEBUG: processing window 6030 to 8000
DEBUG: processing window 6035 to 8000
DEBUG: processing window 6040 to 8000
DEBUG: processing window 6045 to 8000
DEBUG: processing window 6050 to 8000
DEBUG: processing window 6055 to 8000
DEBUG: processing window 6060 to 8000
DEBUG: processing window 6065 to 8000
DEBUG: processing window 6070 to 8000
DEBUG: processing window 6075 to 8000
DEBUG: processing window 6080 to 8000
DEBUG: processing window 6085 to 8000
DEBUG: processing window 6090 to 8000
DEBUG: processing window 6095 to 8000
DEBUG: processing window 6100 to 8000
DEBUG: processing window 6105 to 8000
DEBUG: processing window 6110 to 8000
DEBUG: processing window 6115 to 8000
DEBUG: processing window 6120 to 8000
DEBUG: processing window 6125 to 8000
DEBUG: processing window 6130 to 8000
DEBUG: processing window 6135 to 8000
DEBUG: processing window 6140 to 8000
DEBUG: processing window 6145 to 8000
DEBUG: processing window 6150 to 8000
DEBUG: processing window 6155 to 8000
DEBUG: processing window 6160 to 8000
DEBUG: processing window 6165 to 8000
DEBUG: processing window 6170 to 8000
DEBUG: processing window 6175 to 8000
DEBUG: processing window 6180 to 8000
DEBUG: processing window 6185 to 8000
DEBUG: processing window 6190 to 8000
DEBUG: processing window 6195 to 8000
DEBUG: processing window 6200 to 8000
DEBUG: processing window 6205 to 8000
DEBUG: processing window 6210 to 8000
DEBUG: processing window 6215 to 8000
DEBUG: processing window 6220 to 8000
DEBUG: processing window 6225 to 8000
DEBUG: processing window 6230 to 8000
DEBUG: processing window 6235 to 8000
DEBUG: processing window 6240 to 8000
DEBUG: processing window 6245 to 8000
DEBUG: processing window 6250 to 8000
DEBUG: processing window 6255 to 8000
DEBUG: processing window 6260 to 8000
DEBUG: processing window 6265 to 8000
DEBUG: processing window 6270 to 8000
DEBUG: processing window 6275 to 8000
DEBUG: processing window 6280 to 8000
DEBUG: processing window 6285 to 8000
DEBUG: processing window 6290 to 8000
DEBUG: processing window 6295 to 8000
DEBUG: processing window 6300 to 8000
DEBUG: processing window 6305 to 8000
DEBUG: processing window 6310 to 8000
DEBUG: processing window 6315 to 8000
DEBUG: processing window 6320 to 8000
DEBUG: processing window 6325 to 8000
DEBUG: processing window 6330 to 8000
DEBUG: processing window 6335 to 8000
DEBUG: processing window 6340 to 8000
DEBUG: processing window 6345 to 8000
DEBUG: processing window 6350 to 8000
DEBUG: processing window 6355 to 8000
DEBUG: processing window 6360 to 8000
DEBUG: processing window 6365 to 8000
DEBUG: processing window 6370 to 8000
DEBUG: processing window 6375 to 8000
DEBUG: processing window 6380 to 8000
DEBUG: processing window 6385 to 8000
DEBUG: processing window 6390 to 8000
DEBUG: processing window 6395 to 8000
DEBUG: processing window 6400 to 8000
DEBUG: processing window 6405 to 8000
DEBUG: processing window 6410 to 8000
DEBUG: processing window 6415 to 8000
DEBUG: processing window 6420 to 8000
DEBUG: processing window 6425 to 8000
DEBUG: processing window 6430 to 8000
DEBUG: processing window 6435 to 8000
DEBUG: processing window 6440 to 8000
DEBUG: processing window 6445 to 8000
DEBUG: processing window 6450 to 8000
DEBUG: processing window 6455 to 8000
DEBUG: processing window 6460 to 8000
DEBUG: processing window 6465 to 8000
DEBUG: processing window 6470 to 8000
DEBUG: processing window 6475 to 8000
DEBUG: processing window 6480 to 8000
DEBUG: processing window 6485 to 8000
DEBUG: processing window 6490 to 8000
DEBUG: processing window 6495 to 8000
DEBUG: processing window 6500 to 8000
DEBUG: processing window 6505 to 8000
DEBUG: processing window 6510 to 8000
DEBUG: processing window 6515 to 8000
DEBUG: processing window 6520 to 8000
DEBUG: processing window 6525 to 8000
DEBUG: processing window 6530 to 8000
DEBUG: processing window 6535 to 8000
DEBUG: processing window 6540 to 8000
DEBUG: processing window 6545 to 8000
DEBUG: processing window 6550 to 8000
DEBUG: processing window 6555 to 8000
DEBUG: processing window 6560 to 8000
DEBUG: processing window 6565 to 8000
DEBUG: processing window 6570 to 8000
DEBUG: processing window 6575 to 8000
DEBUG: processing window 6580 to 8000
DEBUG: processing window 6585 to 8000
DEBUG: processing window 6590 to 8000
DEBUG: processing window 6595 to 8000
DEBUG: processing window 6600 to 8000
DEBUG: processing window 6605 to 8000
DEBUG: processing window 6610 to 8000
DEBUG: processing window 6615 to 8000
DEBUG: processing window 6620 to 8000
DEBUG: processing window 6625 to 8000
DEBUG: processing window 6630 to 8000
DEBUG: processing window 6635 to 8000
DEBUG: processing window 6640 to 8000
DEBUG: processing window 6645 to 8000
DEBUG: processing window 6650 to 8000
DEBUG: processing window 6655 to 8000
DEBUG: processing window 6660 to 8000
DEBUG: processing window 6665 to 8000
DEBUG: processing window 6670 to 8000
DEBUG: processing window 6675 to 8000
DEBUG: processing window 6680 to 8000
DEBUG: processing window 6685 to 8000
DEBUG: processing window 6690 to 8000
DEBUG: processing window 6695 to 8000
DEBUG: processing window 6700 to 8000
DEBUG: processing window 6705 to 8000
DEBUG: processing window 6710 to 8000
DEBUG: processing window 6715 to 8000
DEBUG: processing window 6720 to 8000
DEBUG: processing window 6725 to 8000
DEBUG: processing window 6730 to 8000
DEBUG: processing window 6735 to 8000
DEBUG: processing window 6740 to 8000
DEBUG: processing window 6745 to 8000
DEBUG: processing window 6750 to 8000
DEBUG: processing window 6755 to 8000
DEBUG: processing window 6760 to 8000
DEBUG: processing window 6765 to 8000
DEBUG: processing window 6770 to 8000
DEBUG: processing window 6775 to 8000
DEBUG: processing window 6780 to 8000
DEBUG: processing window 6785 to 8000
DEBUG: processing window 6790 to 8000
DEBUG: processing window 6795 to 8000
DEBUG: processing window 6800 to 8000
DEBUG: processing window 6805 to 8000
DEBUG: processing window 6810 to 8000
DEBUG: processing window 6815 to 8000
DEBUG: processing window 6820 to 8000
DEBUG: processing window 6825 to 8000
DEBUG: processing window 6830 to 8000
DEBUG: processing window 6835 to 8000
DEBUG: processing window 6840 to 8000
DEBUG: processing window 6845 to 8000
DEBUG: processing window 6850 to 8000
DEBUG: processing window 6855 to 8000
DEBUG: processing window 6860 to 8000
DEBUG: processing window 6865 to 8000
DEBUG: processing window 6870 to 8000
DEBUG: processing window 6875 to 8000
DEBUG: processing window 6880 to 8000
DEBUG: processing window 6885 to 8000
DEBUG: processing window 6890 to 8000
DEBUG: processing window 6895 to 8000
DEBUG: processing window 6900 to 8000
DEBUG: processing window 6905 to 8000
DEBUG: processing window 6910 to 8000
DEBUG: processing window 6915 to 8000
DEBUG: processing window 6920 to 8000
DEBUG: processing window 6925 to 8000
DEBUG: processing window 6930 to 8000
DEBUG: processing window 6935 to 8000
DEBUG: processing window 6940 to 8000
DEBUG: processing window 6945 to 8000
DEBUG: processing window 6950 to 8000
DEBUG: processing window 6955 to 8000
DEBUG: processing window 6960 to 8000
DEBUG: processing window 6965 to 8000
DEBUG: processing window 6970 to 8000
DEBUG: processing window 6975 to 8000
DEBUG: processing window 6980 to 8000
DEBUG: processing window 6985 to 8000
DEBUG: processing window 6990 to 8000
DEBUG: processing window 6995 to 8000
DEBUG: processing window 7000 to 8000
DEBUG: processing window 7005 to 8000
DEBUG: processing window 7010 to 8000
DEBUG: processing window 7015 to 8000
DEBUG: processing window 7020 to 8000
DEBUG: processing window 7025 to 8000
DEBUG: processing window 7030 to 8000
DEBUG: processing window 7035 to 8000
DEBUG: processing window 7040 to 8000
DEBUG: processing window 7045 to 8000
DEBUG: processing window 7050 to 8000
DEBUG: processing window 7055 to 8000
DEBUG: processing window 7060 to 8000
DEBUG: processing window 7065 to 8000
DEBUG: processing window 7070 to 8000
DEBUG: processing window 7075 to 8000
DEBUG: processing window 7080 to 8000
DEBUG: processing window 7085 to 8000
DEBUG: processing window 7090 to 8000
DEBUG: processing window 7095 to 8000
DEBUG: processing window 7100 to 8000
DEBUG: processing window 7105 to 8000
DEBUG: processing window 7110 to 8000
DEBUG: processing window 7115 to 8000
DEBUG: processing window 7120 to 8000
DEBUG: processing window 7125 to 8000
DEBUG: processing window 7130 to 8000
DEBUG: processing window 7135 to 8000
DEBUG: processing window 7140 to 8000
DEBUG: processing window 7145 to 8000
DEBUG: processing window 7150 to 8000
DEBUG: processing window 7155 to 8000
DEBUG: processing window 7160 to 8000
DEBUG: processing window 7165 to 8000
DEBUG: processing window 7170 to 8000
DEBUG: processing window 7175 to 8000
DEBUG: processing window 7180 to 8000
DEBUG: processing window 7185 to 8000
DEBUG: processing window 7190 to 8000
DEBUG: processing window 7195 to 8000
DEBUG: processing window 7200 to 8000
DEBUG: processing window 7205 to 8000
DEBUG: processing window 7210 to 8000
DEBUG: processing window 7215 to 8000
DEBUG: processing window 7220 to 8000
DEBUG: processing window 7225 to 8000
DEBUG: processing window 7230 to 8000
DEBUG: processing window 7235 to 8000
DEBUG: processing window 7240 to 8000
DEBUG: processing window 7245 to 8000
DEBUG: processing window 7250 to 8000
DEBUG: processing window 7255 to 8000
DEBUG: processing window 7260 to 8000
DEBUG: processing window 7265 to 8000
DEBUG: processing window 7270 to 8000
DEBUG: processing window 7275 to 8000
DEBUG: processing window 7280 to 8000
DEBUG: processing window 7285 to 8000
DEBUG: processing window 7290 to 8000
DEBUG: processing window 7295 to 8000
DEBUG: processing window 7300 to 8000
DEBUG: processing window 7305 to 8000
DEBUG: processing window 7310 to 8000
DEBUG: processing window 7315 to 8000
DEBUG: processing window 7320 to 8000
DEBUG: processing window 7325 to 8000
DEBUG: processing window 7330 to 8000
DEBUG: processing window 7335 to 8000
DEBUG: processing window 7340 to 8000
DEBUG: processing window 7345 to 8000
DEBUG: processing window 7350 to 8000
DEBUG: processing window 7355 to 8000
DEBUG: processing window 7360 to 8000
DEBUG: processing window 7365 to 8000
DEBUG: processing window 7370 to 8000
DEBUG: processing window 7375 to 8000
DEBUG: processing window 7380 to 8000
DEBUG: processing window 7385 to 8000
DEBUG: processing window 7390 to 8000
DEBUG: processing window 7395 to 8000
DEBUG: processing window 7400 to 8000
DEBUG: processing window 7405 to 8000
DEBUG: processing window 7410 to 8000
DEBUG: processing window 7415 to 8000
DEBUG: processing window 7420 to 8000
DEBUG: processing window 7425 to 8000
DEBUG: processing window 7430 to 8000
DEBUG: processing window 7435 to 8000
DEBUG: processing window 7440 to 8000
DEBUG: processing window 7445 to 8000
DEBUG: processing window 7450 to 8000
DEBUG: processing window 7455 to 8000
DEBUG: processing window 7460 to 8000
DEBUG: processing window 7465 to 8000
DEBUG: processing window 7470 to 8000
DEBUG: processing window 7475 to 8000
DEBUG: processing window 7480 to 8000
DEBUG: processing window 7485 to 8000
DEBUG: processing window 7490 to 8000
DEBUG: processing window 7495 to 8000
DEBUG: processing window 7500 to 8000
DEBUG: processing window 7505 to 8000
DEBUG: processing window 7510 to 8000
DEBUG: processing window 7515 to 8000
DEBUG: processing window 7520 to 8000
DEBUG: processing window 7525 to 8000
DEBUG: processing window 7530 to 8000
DEBUG: processing window 7535 to 8000
DEBUG: processing window 7540 to 8000
DEBUG: processing window 7545 to 8000
DEBUG: processing window 7550 to 8000
DEBUG: processing window 7555 to 8000
DEBUG: processing window 7560 to 8000
DEBUG: processing window 7565 to 8000
DEBUG: processing window 7570 to 8000
DEBUG: processing window 7575 to 8000
DEBUG: processing window 7580 to 8000
DEBUG: processing window 7585 to 8000
DEBUG: processing window 7590 to 8000
DEBUG: processing window 7595 to 8000
DEBUG: processing window 7600 to 8000
DEBUG: processing window 7605 to 8000
DEBUG: processing window 7610 to 8000
DEBUG: processing window 7615 to 8000
DEBUG: processing window 7620 to 8000
DEBUG: processing window 7625 to 8000
DEBUG: processing window 7630 to 8000
DEBUG: processing window 7635 to 8000
DEBUG: processing window 7640 to 8000
DEBUG: processing window 7645 to 8000
DEBUG: processing window 7650 to 8000
DEBUG: processing window 7655 to 8000
DEBUG: processing window 7660 to 8000
DEBUG: processing window 7665 to 8000
DEBUG: processing window 7670 to 8000
DEBUG: processing window 7675 to 8000
DEBUG: processing window 7680 to 8000
DEBUG: processing window 7685 to 8000
DEBUG: processing window 7690 to 8000
DEBUG: processing window 7695 to 8000
DEBUG: processing window 7700 to 8000
DEBUG: processing window 7705 to 8000
DEBUG: processing window 7710 to 8000
DEBUG: processing window 7715 to 8000
DEBUG: processing window 7720 to 8000
DEBUG: processing window 7725 to 8000
DEBUG: processing window 7730 to 8000
DEBUG: processing window 7735 to 8000
DEBUG: processing window 7740 to 8000
DEBUG: processing window 7745 to 8000
DEBUG: processing window 7750 to 8000
DEBUG: processing window 7755 to 8000
DEBUG: processing window 7760 to 8000
DEBUG: processing window 7765 to 8000
DEBUG: processing window 7770 to 8000
DEBUG: processing window 7775 to 8000
DEBUG: processing window 7780 to 8000
DEBUG: processing window 7785 to 8000
DEBUG: processing window 7790 to 8000
DEBUG: processing window 7795 to 8000
DEBUG: processing window 7800 to 8000
DEBUG: processing window 7805 to 8000
DEBUG: processing window 7810 to 8000
DEBUG: processing window 7815 to 8000
DEBUG: processing window 7820 to 8000
DEBUG: processing window 7825 to 8000
DEBUG: processing window 7830 to 8000
DEBUG: processing window 7835 to 8000
DEBUG: processing window 7840 to 8000
DEBUG: processing window 7845 to 8000
DEBUG: processing window 7850 to 8000
DEBUG: processing window 7855 to 8000
DEBUG: processing window 7860 to 8000
DEBUG: processing window 7865 to 8000
DEBUG: processing window 7870 to 8000
DEBUG: processing window 7875 to 8000
DEBUG: processing window 7880 to 8000
DEBUG: processing window 7885 to 8000
DEBUG: processing window 7890 to 8000
DEBUG: processing window 7895 to 8000
DEBUG: processing window 7900 to 8000
DEBUG: processing window 7905 to 8000
DEBUG: processing window 7910 to 8000
DEBUG: processing window 7915 to 8000
DEBUG: processing window 7920 to 8000
DEBUG: processing window 7925 to 8000
DEBUG: processing window 7930 to 8000
DEBUG: processing window 7935 to 8000
DEBUG: processing window 7940 to 8000
DEBUG: processing window 7945 to 8000
DEBUG: processing window 7950 to 8000
DEBUG: processing window 7955 to 8000
DEBUG: processing window 7960 to 8000
DEBUG: processing window 7965 to 8000
DEBUG: processing window 7970 to 8000
DEBUG: processing window 7975 to 8000
DEBUG: processing window 7980 to 8000
DEBUG: processing window 7985 to 8000
DEBUG: processing window 7990 to 8000
DEBUG: processing window 7995 to 8000
DEBUG: processing window 8000 to 8000
LAMMPS (2 Aug 2023 - Update 2)
OMP_NUM_THREADS environment is not set. Defaulting to 1 thread. (src/comm.cpp:98)
  using 1 OpenMP thread(s) per MPI task
Reading restart file ...
  restart file = 2 Aug 2023, LAMMPS = 2 Aug 2023
  restoring atom style full from restart
  orthogonal box = (-0.39870732 -0.022494239 -0.035485071) to (466.14321 38.000194 41.486885)
  16 by 2 by 2 MPI processor grid
  restoring pair style lj/cut/coul/long from restart
[...]
DEBUG: processing window 5435 to 8000
DEBUG: processing window 5440 to 8000
DEBUG: processing window 5445 to 8000
DEBUG: processing window 5450 to 8000
DEBUG: processing window 5455 to 8000
DEBUG: processing window 5460 to 8000
DEBUG: processing window 5465 to 8000
DEBUG: processing window 5470 to 8000
DEBUG: processing window 5475 to 8000
DEBUG: processing window 5480 to 8000
DEBUG: processing window 5485 to 8000
DEBUG: processing window 5490 to 8000
DEBUG: processing window 5495 to 8000
DEBUG: processing window 5500 to 8000
DEBUG: processing window 5505 to 8000
DEBUG: processing window 5510 to 8000
DEBUG: processing window 5515 to 8000
DEBUG: processing window 5520 to 8000
DEBUG: processing window 5525 to 8000
DEBUG: processing window 5530 to 8000
DEBUG: processing window 5535 to 8000
DEBUG: processing window 5540 to 8000
DEBUG: processing window 5545 to 8000
DEBUG: processing window 5550 to 8000
DEBUG: processing window 5555 to 8000
DEBUG: processing window 5560 to 8000
DEBUG: processing window 5565 to 8000
DEBUG: processing window 5570 to 8000
DEBUG: processing window 5575 to 8000
DEBUG: processing window 5580 to 8000
DEBUG: processing window 5585 to 8000
DEBUG: processing window 5590 to 8000
DEBUG: processing window 5595 to 8000
DEBUG: processing window 5600 to 8000
DEBUG: processing window 5605 to 8000
DEBUG: processing window 5610 to 8000
DEBUG: processing window 5615 to 8000
DEBUG: processing window 5620 to 8000
DEBUG: processing window 5625 to 8000
DEBUG: processing window 5630 to 8000
DEBUG: processing window 5635 to 8000
DEBUG: processing window 5640 to 8000
DEBUG: processing window 5645 to 8000
DEBUG: processing window 5650 to 8000
DEBUG: processing window 5655 to 8000
DEBUG: processing window 5660 to 8000
DEBUG: processing window 5665 to 8000
DEBUG: processing window 5670 to 8000
DEBUG: processing window 5675 to 8000
DEBUG: processing window 5680 to 8000
DEBUG: processing window 5685 to 8000
DEBUG: processing window 5690 to 8000
DEBUG: processing window 5695 to 8000
DEBUG: processing window 5700 to 8000
DEBUG: processing window 5705 to 8000
DEBUG: processing window 5710 to 8000
DEBUG: processing window 5715 to 8000
DEBUG: processing window 5720 to 8000
DEBUG: processing window 5725 to 8000
DEBUG: processing window 5730 to 8000
DEBUG: processing window 5735 to 8000
DEBUG: processing window 5740 to 8000
DEBUG: processing window 5745 to 8000
DEBUG: processing window 5750 to 8000
DEBUG: processing window 5755 to 8000
DEBUG: processing window 5760 to 8000
DEBUG: processing window 5765 to 8000
DEBUG: processing window 5770 to 8000
DEBUG: processing window 5775 to 8000
DEBUG: processing window 5780 to 8000
DEBUG: processing window 5785 to 8000
DEBUG: processing window 5790 to 8000
DEBUG: processing window 5795 to 8000
DEBUG: processing window 5800 to 8000
DEBUG: processing window 5805 to 8000
DEBUG: processing window 5810 to 8000
DEBUG: processing window 5815 to 8000
DEBUG: processing window 5820 to 8000
DEBUG: processing window 5825 to 8000
DEBUG: processing window 5830 to 8000
DEBUG: processing window 5835 to 8000
DEBUG: processing window 5840 to 8000
DEBUG: processing window 5845 to 8000
DEBUG: processing window 5850 to 8000
DEBUG: processing window 5855 to 8000
DEBUG: processing window 5860 to 8000
DEBUG: processing window 5865 to 8000
DEBUG: processing window 5870 to 8000
DEBUG: processing window 5875 to 8000
DEBUG: processing window 5880 to 8000
DEBUG: processing window 5885 to 8000
DEBUG: processing window 5890 to 8000
DEBUG: processing window 5895 to 8000
DEBUG: processing window 5900 to 8000
DEBUG: processing window 5905 to 8000
DEBUG: processing window 5910 to 8000
DEBUG: processing window 5915 to 8000
DEBUG: processing window 5920 to 8000
DEBUG: processing window 5925 to 8000
DEBUG: processing window 5930 to 8000
DEBUG: processing window 5935 to 8000
DEBUG: processing window 5940 to 8000
DEBUG: processing window 5945 to 8000
DEBUG: processing window 5950 to 8000
DEBUG: processing window 5955 to 8000
DEBUG: processing window 5960 to 8000
DEBUG: processing window 5965 to 8000
DEBUG: processing window 5970 to 8000
DEBUG: processing window 5975 to 8000
DEBUG: processing window 5980 to 8000
DEBUG: processing window 5985 to 8000
DEBUG: processing window 5990 to 8000
DEBUG: processing window 5995 to 8000
DEBUG: processing window 6000 to 8000
DEBUG: processing window 6005 to 8000
DEBUG: processing window 6010 to 8000
DEBUG: processing window 6015 to 8000
DEBUG: processing window 6020 to 8000
DEBUG: processing window 6025 to 8000
DEBUG: processing window 6030 to 8000
DEBUG: processing window 6035 to 8000
DEBUG: processing window 6040 to 8000
DEBUG: processing window 6045 to 8000
DEBUG: processing window 6050 to 8000
DEBUG: processing window 6055 to 8000
DEBUG: processing window 6060 to 8000
DEBUG: processing window 6065 to 8000
DEBUG: processing window 6070 to 8000
DEBUG: processing window 6075 to 8000
DEBUG: processing window 6080 to 8000
DEBUG: processing window 6085 to 8000
DEBUG: processing window 6090 to 8000
DEBUG: processing window 6095 to 8000
DEBUG: processing window 6100 to 8000
DEBUG: processing window 6105 to 8000
DEBUG: processing window 6110 to 8000
DEBUG: processing window 6115 to 8000
DEBUG: processing window 6120 to 8000
DEBUG: processing window 6125 to 8000
DEBUG: processing window 6130 to 8000
DEBUG: processing window 6135 to 8000
DEBUG: processing window 6140 to 8000
DEBUG: processing window 6145 to 8000
DEBUG: processing window 6150 to 8000
DEBUG: processing window 6155 to 8000
DEBUG: processing window 6160 to 8000
DEBUG: processing window 6165 to 8000
DEBUG: processing window 6170 to 8000
DEBUG: processing window 6175 to 8000
DEBUG: processing window 6180 to 8000
DEBUG: processing window 6185 to 8000
DEBUG: processing window 6190 to 8000
DEBUG: processing window 6195 to 8000
DEBUG: processing window 6200 to 8000
DEBUG: processing window 6205 to 8000
DEBUG: processing window 6210 to 8000
DEBUG: processing window 6215 to 8000
DEBUG: processing window 6220 to 8000
DEBUG: processing window 6225 to 8000
DEBUG: processing window 6230 to 8000
DEBUG: processing window 6235 to 8000
DEBUG: processing window 6240 to 8000
DEBUG: processing window 6245 to 8000
DEBUG: processing window 6250 to 8000
DEBUG: processing window 6255 to 8000
DEBUG: processing window 6260 to 8000
DEBUG: processing window 6265 to 8000
DEBUG: processing window 6270 to 8000
DEBUG: processing window 6275 to 8000
DEBUG: processing window 6280 to 8000
DEBUG: processing window 6285 to 8000
DEBUG: processing window 6290 to 8000
DEBUG: processing window 6295 to 8000
DEBUG: processing window 6300 to 8000
DEBUG: processing window 6305 to 8000
DEBUG: processing window 6310 to 8000
DEBUG: processing window 6315 to 8000
DEBUG: processing window 6320 to 8000
DEBUG: processing window 6325 to 8000
DEBUG: processing window 6330 to 8000
DEBUG: processing window 6335 to 8000
DEBUG: processing window 6340 to 8000
DEBUG: processing window 6345 to 8000
DEBUG: processing window 6350 to 8000
DEBUG: processing window 6355 to 8000
DEBUG: processing window 6360 to 8000
DEBUG: processing window 6365 to 8000
DEBUG: processing window 6370 to 8000
DEBUG: processing window 6375 to 8000
DEBUG: processing window 6380 to 8000
DEBUG: processing window 6385 to 8000
DEBUG: processing window 6390 to 8000
DEBUG: processing window 6395 to 8000
DEBUG: processing window 6400 to 8000
DEBUG: processing window 6405 to 8000
DEBUG: processing window 6410 to 8000
DEBUG: processing window 6415 to 8000
DEBUG: processing window 6420 to 8000
DEBUG: processing window 6425 to 8000
DEBUG: processing window 6430 to 8000
DEBUG: processing window 6435 to 8000
DEBUG: processing window 6440 to 8000
DEBUG: processing window 6445 to 8000
DEBUG: processing window 6450 to 8000
DEBUG: processing window 6455 to 8000
DEBUG: processing window 6460 to 8000
DEBUG: processing window 6465 to 8000
DEBUG: processing window 6470 to 8000
DEBUG: processing window 6475 to 8000
DEBUG: processing window 6480 to 8000
DEBUG: processing window 6485 to 8000
DEBUG: processing window 6490 to 8000
DEBUG: processing window 6495 to 8000
DEBUG: processing window 6500 to 8000
DEBUG: processing window 6505 to 8000
DEBUG: processing window 6510 to 8000
DEBUG: processing window 6515 to 8000
DEBUG: processing window 6520 to 8000
DEBUG: processing window 6525 to 8000
DEBUG: processing window 6530 to 8000
DEBUG: processing window 6535 to 8000
DEBUG: processing window 6540 to 8000
DEBUG: processing window 6545 to 8000
DEBUG: processing window 6550 to 8000
DEBUG: processing window 6555 to 8000
DEBUG: processing window 6560 to 8000
DEBUG: processing window 6565 to 8000
DEBUG: processing window 6570 to 8000
DEBUG: processing window 6575 to 8000
DEBUG: processing window 6580 to 8000
DEBUG: processing window 6585 to 8000
DEBUG: processing window 6590 to 8000
DEBUG: processing window 6595 to 8000
DEBUG: processing window 6600 to 8000
DEBUG: processing window 6605 to 8000
DEBUG: processing window 6610 to 8000
DEBUG: processing window 6615 to 8000
DEBUG: processing window 6620 to 8000
DEBUG: processing window 6625 to 8000
DEBUG: processing window 6630 to 8000
DEBUG: processing window 6635 to 8000
DEBUG: processing window 6640 to 8000
DEBUG: processing window 6645 to 8000
DEBUG: processing window 6650 to 8000
DEBUG: processing window 6655 to 8000
DEBUG: processing window 6660 to 8000
DEBUG: processing window 6665 to 8000
DEBUG: processing window 6670 to 8000
DEBUG: processing window 6675 to 8000
DEBUG: processing window 6680 to 8000
DEBUG: processing window 6685 to 8000
DEBUG: processing window 6690 to 8000
DEBUG: processing window 6695 to 8000
DEBUG: processing window 6700 to 8000
DEBUG: processing window 6705 to 8000
DEBUG: processing window 6710 to 8000
DEBUG: processing window 6715 to 8000
DEBUG: processing window 6720 to 8000
DEBUG: processing window 6725 to 8000
DEBUG: processing window 6730 to 8000
DEBUG: processing window 6735 to 8000
DEBUG: processing window 6740 to 8000
DEBUG: processing window 6745 to 8000
DEBUG: processing window 6750 to 8000
DEBUG: processing window 6755 to 8000
DEBUG: processing window 6760 to 8000
DEBUG: processing window 6765 to 8000
DEBUG: processing window 6770 to 8000
DEBUG: processing window 6775 to 8000
DEBUG: processing window 6780 to 8000
DEBUG: processing window 6785 to 8000
DEBUG: processing window 6790 to 8000
DEBUG: processing window 6795 to 8000
DEBUG: processing window 6800 to 8000
DEBUG: processing window 6805 to 8000
DEBUG: processing window 6810 to 8000
DEBUG: processing window 6815 to 8000
DEBUG: processing window 6820 to 8000
DEBUG: processing window 6825 to 8000
DEBUG: processing window 6830 to 8000
DEBUG: processing window 6835 to 8000
DEBUG: processing window 6840 to 8000
DEBUG: processing window 6845 to 8000
DEBUG: processing window 6850 to 8000
DEBUG: processing window 6855 to 8000
DEBUG: processing window 6860 to 8000
DEBUG: processing window 6865 to 8000
DEBUG: processing window 6870 to 8000
DEBUG: processing window 6875 to 8000
DEBUG: processing window 6880 to 8000
DEBUG: processing window 6885 to 8000
DEBUG: processing window 6890 to 8000
DEBUG: processing window 6895 to 8000
DEBUG: processing window 6900 to 8000
DEBUG: processing window 6905 to 8000
DEBUG: processing window 6910 to 8000
DEBUG: processing window 6915 to 8000
DEBUG: processing window 6920 to 8000
DEBUG: processing window 6925 to 8000
DEBUG: processing window 6930 to 8000
DEBUG: processing window 6935 to 8000
DEBUG: processing window 6940 to 8000
DEBUG: processing window 6945 to 8000
DEBUG: processing window 6950 to 8000
DEBUG: processing window 6955 to 8000
DEBUG: processing window 6960 to 8000
DEBUG: processing window 6965 to 8000
DEBUG: processing window 6970 to 8000
DEBUG: processing window 6975 to 8000
DEBUG: processing window 6980 to 8000
DEBUG: processing window 6985 to 8000
DEBUG: processing window 6990 to 8000
DEBUG: processing window 6995 to 8000
DEBUG: processing window 7000 to 8000
DEBUG: processing window 7005 to 8000
DEBUG: processing window 7010 to 8000
DEBUG: processing window 7015 to 8000
DEBUG: processing window 7020 to 8000
DEBUG: processing window 7025 to 8000
DEBUG: processing window 7030 to 8000
DEBUG: processing window 7035 to 8000
DEBUG: processing window 7040 to 8000
DEBUG: processing window 7045 to 8000
DEBUG: processing window 7050 to 8000
DEBUG: processing window 7055 to 8000
DEBUG: processing window 7060 to 8000
DEBUG: processing window 7065 to 8000
DEBUG: processing window 7070 to 8000
DEBUG: processing window 7075 to 8000
DEBUG: processing window 7080 to 8000
DEBUG: processing window 7085 to 8000
DEBUG: processing window 7090 to 8000
DEBUG: processing window 7095 to 8000
DEBUG: processing window 7100 to 8000
DEBUG: processing window 7105 to 8000
DEBUG: processing window 7110 to 8000
DEBUG: processing window 7115 to 8000
DEBUG: processing window 7120 to 8000
DEBUG: processing window 7125 to 8000
DEBUG: processing window 7130 to 8000
DEBUG: processing window 7135 to 8000
DEBUG: processing window 7140 to 8000
DEBUG: processing window 7145 to 8000
DEBUG: processing window 7150 to 8000
DEBUG: processing window 7155 to 8000
DEBUG: processing window 7160 to 8000
DEBUG: processing window 7165 to 8000
DEBUG: processing window 7170 to 8000
DEBUG: processing window 7175 to 8000
DEBUG: processing window 7180 to 8000
DEBUG: processing window 7185 to 8000
DEBUG: processing window 7190 to 8000
DEBUG: processing window 7195 to 8000
DEBUG: processing window 7200 to 8000
DEBUG: processing window 7205 to 8000
DEBUG: processing window 7210 to 8000
DEBUG: processing window 7215 to 8000
DEBUG: processing window 7220 to 8000
DEBUG: processing window 7225 to 8000
DEBUG: processing window 7230 to 8000
DEBUG: processing window 7235 to 8000
DEBUG: processing window 7240 to 8000
DEBUG: processing window 7245 to 8000
DEBUG: processing window 7250 to 8000
DEBUG: processing window 7255 to 8000
DEBUG: processing window 7260 to 8000
DEBUG: processing window 7265 to 8000
DEBUG: processing window 7270 to 8000
DEBUG: processing window 7275 to 8000
DEBUG: processing window 7280 to 8000
DEBUG: processing window 7285 to 8000
DEBUG: processing window 7290 to 8000
DEBUG: processing window 7295 to 8000
DEBUG: processing window 7300 to 8000
DEBUG: processing window 7305 to 8000
DEBUG: processing window 7310 to 8000
DEBUG: processing window 7315 to 8000
DEBUG: processing window 7320 to 8000
DEBUG: processing window 7325 to 8000
DEBUG: processing window 7330 to 8000
DEBUG: processing window 7335 to 8000
DEBUG: processing window 7340 to 8000
DEBUG: processing window 7345 to 8000
DEBUG: processing window 7350 to 8000
DEBUG: processing window 7355 to 8000
DEBUG: processing window 7360 to 8000
DEBUG: processing window 7365 to 8000
DEBUG: processing window 7370 to 8000
DEBUG: processing window 7375 to 8000
DEBUG: processing window 7380 to 8000
DEBUG: processing window 7385 to 8000
DEBUG: processing window 7390 to 8000
DEBUG: processing window 7395 to 8000
DEBUG: processing window 7400 to 8000
DEBUG: processing window 7405 to 8000
DEBUG: processing window 7410 to 8000
DEBUG: processing window 7415 to 8000
DEBUG: processing window 7420 to 8000
DEBUG: processing window 7425 to 8000
DEBUG: processing window 7430 to 8000
DEBUG: processing window 7435 to 8000
DEBUG: processing window 7440 to 8000
DEBUG: processing window 7445 to 8000
DEBUG: processing window 7450 to 8000
DEBUG: processing window 7455 to 8000
DEBUG: processing window 7460 to 8000
DEBUG: processing window 7465 to 8000
DEBUG: processing window 7470 to 8000
DEBUG: processing window 7475 to 8000
DEBUG: processing window 7480 to 8000
DEBUG: processing window 7485 to 8000
DEBUG: processing window 7490 to 8000
DEBUG: processing window 7495 to 8000
DEBUG: processing window 7500 to 8000
DEBUG: processing window 7505 to 8000
DEBUG: processing window 7510 to 8000
DEBUG: processing window 7515 to 8000
DEBUG: processing window 7520 to 8000
DEBUG: processing window 7525 to 8000
DEBUG: processing window 7530 to 8000
DEBUG: processing window 7535 to 8000
DEBUG: processing window 7540 to 8000
DEBUG: processing window 7545 to 8000
DEBUG: processing window 7550 to 8000
DEBUG: processing window 7555 to 8000
DEBUG: processing window 7560 to 8000
DEBUG: processing window 7565 to 8000
DEBUG: processing window 7570 to 8000
DEBUG: processing window 7575 to 8000
DEBUG: processing window 7580 to 8000
DEBUG: processing window 7585 to 8000
DEBUG: processing window 7590 to 8000
DEBUG: processing window 7595 to 8000
DEBUG: processing window 7600 to 8000
DEBUG: processing window 7605 to 8000
DEBUG: processing window 7610 to 8000
DEBUG: processing window 7615 to 8000
DEBUG: processing window 7620 to 8000
DEBUG: processing window 7625 to 8000
DEBUG: processing window 7630 to 8000
DEBUG: processing window 7635 to 8000
DEBUG: processing window 7640 to 8000
DEBUG: processing window 7645 to 8000
DEBUG: processing window 7650 to 8000
DEBUG: processing window 7655 to 8000
DEBUG: processing window 7660 to 8000
DEBUG: processing window 7665 to 8000
DEBUG: processing window 7670 to 8000
DEBUG: processing window 7675 to 8000
DEBUG: processing window 7680 to 8000
DEBUG: processing window 7685 to 8000
DEBUG: processing window 7690 to 8000
DEBUG: processing window 7695 to 8000
DEBUG: processing window 7700 to 8000
DEBUG: processing window 7705 to 8000
DEBUG: processing window 7710 to 8000
DEBUG: processing window 7715 to 8000
DEBUG: processing window 7720 to 8000
DEBUG: processing window 7725 to 8000
DEBUG: processing window 7730 to 8000
DEBUG: processing window 7735 to 8000
DEBUG: processing window 7740 to 8000
DEBUG: processing window 7745 to 8000
DEBUG: processing window 7750 to 8000
DEBUG: processing window 7755 to 8000
DEBUG: processing window 7760 to 8000
DEBUG: processing window 7765 to 8000
DEBUG: processing window 7770 to 8000
DEBUG: processing window 7775 to 8000
DEBUG: processing window 7780 to 8000
DEBUG: processing window 7785 to 8000
DEBUG: processing window 7790 to 8000
DEBUG: processing window 7795 to 8000
DEBUG: processing window 7800 to 8000
DEBUG: processing window 7805 to 8000
DEBUG: processing window 7810 to 8000
DEBUG: processing window 7815 to 8000
DEBUG: processing window 7820 to 8000
DEBUG: processing window 7825 to 8000
DEBUG: processing window 7830 to 8000
DEBUG: processing window 7835 to 8000
DEBUG: processing window 7840 to 8000
DEBUG: processing window 7845 to 8000
DEBUG: processing window 7850 to 8000
DEBUG: processing window 7855 to 8000
DEBUG: processing window 7860 to 8000
DEBUG: processing window 7865 to 8000
DEBUG: processing window 7870 to 8000
DEBUG: processing window 7875 to 8000
DEBUG: processing window 7880 to 8000
DEBUG: processing window 7885 to 8000
DEBUG: processing window 7890 to 8000
DEBUG: processing window 7895 to 8000
DEBUG: processing window 7900 to 8000
DEBUG: processing window 7905 to 8000
DEBUG: processing window 7910 to 8000
DEBUG: processing window 7915 to 8000
DEBUG: processing window 7920 to 8000
DEBUG: processing window 7925 to 8000
DEBUG: processing window 7930 to 8000
DEBUG: processing window 7935 to 8000
DEBUG: processing window 7940 to 8000
DEBUG: processing window 7945 to 8000
DEBUG: processing window 7950 to 8000
DEBUG: processing window 7955 to 8000
DEBUG: processing window 7960 to 8000
DEBUG: processing window 7965 to 8000
DEBUG: processing window 7970 to 8000
DEBUG: processing window 7975 to 8000
DEBUG: processing window 7980 to 8000
DEBUG: processing window 7985 to 8000
DEBUG: processing window 7990 to 8000
DEBUG: processing window 7995 to 8000
DEBUG: processing window 8000 to 8000
dsf_repeat.py:73: RuntimeWarning: More than 20 figures have been opened. Figures created through the pyplot interface (`matplotlib.pyplot.figure`) are retained until explicitly closed and may consume too much memory. (To control this warning, see the rcParam `figure.max_open_warning`). Consider using `matplotlib.pyplot.close()`.
  fig, axes = plt.subplots(figsize=(3.4, 3.8), nrows=2, dpi=300,

real	2735m57.366s
user	38223m3.812s
sys	387m31.740s
